
    -----------------------------------------------------------------------
          Psi4: An Open-Source Ab Initio Electronic Structure Package
                               Psi4 1.4rc2.dev99 

                         Git: Rev {master} c4c438c 


    D. G. A. Smith, L. A. Burns, A. C. Simmonett, R. M. Parrish,
    M. C. Schieber, R. Galvelis, P. Kraus, H. Kruse, R. Di Remigio,
    A. Alenaizan, A. M. James, S. Lehtola, J. P. Misiewicz, M. Scheurer,
    R. A. Shaw, J. B. Schriber, Y. Xie, Z. L. Glick, D. A. Sirianni,
    J. S. O'Brien, J. M. Waldrop, A. Kumar, E. G. Hohenstein,
    B. P. Pritchard, B. R. Brooks, H. F. Schaefer III, A. Yu. Sokolov,
    K. Patkowski, A. E. DePrince III, U. Bozkaya, R. A. King,
    F. A. Evangelista, J. M. Turney, T. D. Crawford, C. D. Sherrill,
    J. Chem. Phys. 152(18) 184108 (2020). https://doi.org/10.1063/5.0006002

                            Additional Code Authors
    E. T. Seidl, C. L. Janssen, E. F. Valeev, M. L. Leininger,
    J. F. Gonthier, R. M. Richard, H. R. McAlexander, M. Saitow, X. Wang,
    P. Verma, and M. H. Lechner

             Previous Authors, Complete List of Code Contributors,
                       and Citations for Specific Modules
    https://github.com/psi4/psi4/blob/master/codemeta.json
    https://github.com/psi4/psi4/graphs/contributors
    http://psicode.org/psi4manual/master/introduction.html#citing-psifour

    -----------------------------------------------------------------------


    Psi4 started on: Friday, 14 May 2021 02:49PM

    Process ID: 233162
    Host:       skylm002.palmetto.clemson.edu
    PSIDATADIR: /home/adamcronin/.conda/envs/p4env/share/psi4
    Memory:     500.0 MiB
    Threads:    1
    
  ==> Input File <==

--------------------------------------------------------------------------
molecule{
C    0.00000000  0.00000000  0.00000000
C    2.47460600  22.2649200 -6.73071900
C    3.47725300  22.7053300 -5.64613700
C    4.02309200  21.6482500 -4.66798600
C    4.16890500  21.9944700 -3.17391000
C    3.76767400  23.3944900 -2.67285800
C    3.00172900  23.5147800 -1.34072300
C    2.66826400  22.2305800 -0.55829400
C    1.28852500  22.0800800  0.11019600
C    0.25312900  23.2134000 -0.01553900
C   -1.21965700  22.8473500 -0.28476100
C   -1.59882400  21.3609100 -0.42156300
C   -2.59744200  20.9219600 -1.50938600
C   -3.21003800  21.9717900 -2.45524100
C   -3.36752700  21.6211600 -3.94777900
C   -2.90501500  20.2359600 -4.43704200
C   -2.13948700  20.1151700 -5.76831800
C   -1.85009000  21.3789500 -6.59984000
C   -0.46249500  21.5355300 -7.25203400
C    0.57944900  20.4189400 -7.05304900
C    2.05269200  20.7849700 -6.79048100
C    2.98174300  19.7267400 -6.16721200
C    3.98643100  20.1665900 -5.08623300
C    4.56325000  19.1055900 -4.13080300
C    4.70848200  19.4516000 -2.63735800
C    4.27220900  20.8465700 -2.15242800
C    3.50797200  20.9664900 -0.82095100
C    3.20761700  19.6876600 -0.01716300
C    1.82592900  19.5358600  0.64572400
C    0.79581200  20.6690500  0.48200000
C   -0.67478800  20.3027600  0.20913300
C   -1.06834500  18.8168800  0.11821300
C   -2.07081800  18.3779000 -0.96508800
C   -2.64301300  19.4392600 -1.92293200
C   -2.79972700  19.0891900 -3.41431400
C   -2.37022100  17.6920100 -3.89915000
C   -1.60592700  17.5712200 -5.23035200
C   -1.29749000  18.8521700 -6.02775000
C    0.08711900  19.0073400 -6.68331400
C    1.11718400  17.8745700 -6.52250200
C    2.58958700  18.2404200 -6.25906300
C    3.51799800  17.1843200 -5.63122400
C    4.52298900  17.6243400 -4.55006900
C    5.09930700  16.5634500 -3.59380700
C    5.24505100  16.9092100 -2.10026600
C    4.81138200  18.3048600 -1.61441400
C    4.04905800  18.4250200 -0.28166500
C    3.74436700  17.1446300  0.51831500
C    2.35979200  16.9910100  1.17472900
C    1.33007700  18.1250800  1.01457200
C   -0.14250000  17.7603100  0.74898600
C   -0.53726000  16.2745100  0.65851600
C   -1.54066200  15.8358300 -0.42418900
C   -2.11306000  16.8962700 -1.38282200
C   -2.26407900  16.5466100 -2.87511500
C   -1.83111100  15.1501900 -3.36011800
C   -1.06749000  15.0285500 -4.69145500
C   -0.76110400  16.3098300 -5.48989500
C    0.62190400  16.4649800 -6.14987300
C    1.65249100  15.3321000 -5.99260500
C    3.12344300  15.6983700 -5.72019600
C    4.05049300  14.6425800 -5.09058400
C    5.05918700  15.0822400 -4.01318100
C    5.63516500  14.0205400 -3.05769800
C    5.78167400  14.3662700 -1.56405300
C    5.34816800  15.7619000 -1.07799300
C    4.58630600  15.8820500  0.25496900
C    4.27983000  14.6010200  1.05334500
C    2.89393600  14.4468300  1.70694000
C    1.86430500  15.5803100  1.54371800
C    0.39046800  15.2166400  1.28481300
C   -0.00517500  13.7307900  1.19608300
C   -1.01624200  13.2934800  0.11989300
C   -1.58195400  14.3543800 -0.84217400
C   -1.71851500  14.0059200 -2.33610300
C   -1.27302500  12.6124300 -2.81756500
C   -0.45461700  12.4966100 -4.11762100
C   -0.22019600  13.7688700 -4.95289500
C    1.15166900  13.9225000 -5.62781200
C    2.17207000  12.7955900 -5.39627400
C    3.65219500  13.1579800 -5.17419300
C    4.58767500  12.1009600 -4.55864600
C    5.59346400  12.5393600 -3.47778400
C    6.16777500  11.4770500 -2.52195100
C    6.31864200  11.8233800 -1.02887600
C    5.88554500  13.2189600 -0.54185100
C    5.12182700  13.3384200  0.79014200
C    4.81373700  12.0568000  1.58688400
C    3.42891100  11.9036400  2.24285300
C    2.39864900  13.0366100  2.07808700
C    0.92543000  12.6720500  1.81659800
C    0.53170000  11.1860800  1.72419300
C   -0.48013400  10.7485500  0.64871300
C   -1.06141700  11.8127200 -0.30030500
C   -1.21417100  11.4699000 -1.79364300
C   -0.75157000  10.0934500 -2.29244700
C    0.06280500  10.0038800 -3.59703100
C    0.18043900  11.1731400 -4.60062800
C    1.67364000  11.4153900 -4.92652500
C    2.69903500  10.2671200 -4.86309400
C    4.18142400  10.6175600 -4.63769500
C    5.11014700  9.55841900 -4.01714400
C    6.11950100  9.99530200 -2.93926000
C    6.69600600  8.93257200 -1.98567900
C    6.85441400  9.27970900 -0.49372600
C    6.42216700  10.6756600 -0.00694800
C    5.65590500  10.7943700  1.32368800
C    5.34962400  9.51323400  2.12163400
C    3.96452600  9.35994400  2.77694600
C    2.93405800  10.4927300  2.61195700
C    1.46214500  10.1271500  2.34430400
C    1.07057900  8.64116400  2.24614500
C    0.06701300  8.20417200  1.16292300
C   -0.51580900  9.27063500  0.21724800
C   -0.66545200  8.93715000 -1.27878400
C   -0.25276000  7.53880000 -1.77340200
C    0.51063300  7.42078800 -3.10532000
C    0.83229500  8.70367300 -3.89501400
C    2.21112400  8.84049300 -4.55950800
C    3.24155700  7.70932200 -4.38433900
C    4.71268300  8.07390500 -4.11006400
C    5.63833200  7.01535000 -3.48326800
C    6.64720600  7.45122500 -2.40423200
C    7.22572300  6.38801700 -1.45203700
C    7.38611000  6.73545100  0.03946000
C    6.95774200  8.13194500  0.52813200
C    6.19297300  8.25135400  1.85967300
C    5.88535400  6.97023300  2.65759400
C    4.49952000  6.81649900  3.31132300
C    3.46895100  7.94891500  3.14437200
C    1.99799500  7.58325700  2.87162900
C    1.60630100  6.09755100  2.77193300
C    0.61538200  5.65763400  1.67842900
C    0.02604500  6.72471300  0.73626400
C   -0.15402100  6.38701000 -0.75560200
C    0.25659700  4.98921400 -1.25359500
C    1.02521600  4.87089900 -2.58240900
C    1.34785200  6.15466000 -3.36956100
C    2.74117400  6.30178700 -4.00933000
C    3.76742000  5.16664800 -3.83303300
C    5.24164700  5.53076900 -3.57660100
C    6.17131500  4.47356600 -2.95448800
C    7.17465800  4.90664500 -1.86985100
C    7.74013300  3.83797700 -0.91571000
C    7.91308400  4.18950300  0.57409200
C    7.48799500  5.58742900  1.06071700
C    6.72510500  5.70674700  2.39289600
C    6.41697500  4.42344100  3.18661300
C    5.02726100  4.26619900  3.83284300
C    4.00242300  5.40495200  3.67437300
C    2.53033700  5.04265900  3.40607400
C    2.14324500  3.55620400  3.30816700
C    1.19544800  3.10933700  2.17833800
C    0.58474600  4.17791500  1.25010900
C    0.36186400  3.83902200 -0.23564100
C    0.74933200  2.43700400 -0.73907200
C    1.53185800  2.31980500 -2.06099200
C    1.86649400  3.60649500 -2.83839400
C    3.27064700  3.75876000 -3.45289000
C    4.29700200  2.62503900 -3.26212300
C    5.77908100  2.98835200 -3.04912400
C    6.75698700  1.93856000 -2.48947300
C    7.70997000  2.36139600 -1.35418900
C    8.06142800  3.06223700  1.61298000
C    7.29031700  3.17825700  2.94247100
C    4.52284200  2.86608600  4.23196900
C    3.03431100  2.52329800  4.02303600
C    1.17178600  1.63274300  1.73780100
C    0.79559100  1.28784900  0.28438500
C    2.35732100  1.05280700 -2.35084900
C    3.79395000  1.21965100 -2.88146700
H    0.69240700 -0.87104400 -0.02260600
H   -0.75921200 -0.15463000  0.79899400
H   -0.51518200  0.08734900 -0.98262800
H    2.27779900  22.9137300 -7.58484900
H    3.97866400  23.6701600 -5.72876200
H    4.22388500  24.2776500 -3.12144600
H    2.92125400  24.4825400 -0.84470300
H    0.51377000  24.2204900  0.31150200
H   -2.00312600  23.5883900 -0.12315100
H   -3.75202400  22.8203400 -2.03625400
H   -4.00857900  22.2304300 -4.58588400
H   -2.67824100  22.0097100 -6.92457500
H   -0.30963200  22.2796600 -8.03423200
H    6.99290600  1.05904000 -3.08951000
H    8.49919700  1.68501400 -1.02482000
H    8.88956200  2.35828700  1.52538900
H    7.55377000  2.53379000  3.78156800
H    5.14322600  2.23164100  4.86577600
H    2.56648900  1.76031400  4.64630000
H    1.58756600  0.86368200  2.38873100
H    1.84501700  0.09856800 -2.47572300
H    4.49270800  0.38394200 -2.83990900
H   -0.32249316  10.8723821 -5.52686615
}
memory 30 GB
set reference uhf
set basis 6-31G(d)
set maxiter 1000
optimize('pbe')
--------------------------------------------------------------------------

  Memory set to  27.940 GiB by Python driver.

Scratch directory: /tmp/
gradient() will perform analytic gradient computation.

*** tstart() called on skylm002.palmetto.clemson.edu
*** at Fri May 14 14:49:28 2021

   => Loading Basis Set <=

    Name: 6-31G(D)
    Role: ORBITAL
    Keyword: BASIS
    atoms 1-171   entry C          line   111 file /home/adamcronin/.conda/envs/p4env/share/psi4/basis/6-31g_d_.gbs 
    atoms 172-194 entry H          line    44 file /home/adamcronin/.conda/envs/p4env/share/psi4/basis/6-31g_d_.gbs 


         ---------------------------------------------------------
                                   SCF
               by Justin Turney, Rob Parrish, Andy Simmonett
                          and Daniel G. A. Smith
                              UKS Reference
                        1 Threads,  28610 MiB Core
         ---------------------------------------------------------

  ==> Geometry <==

    Molecular point group: c1
    Full point group: C1

    Geometry (in Angstrom), charge = 0, multiplicity = 2:

       Center              X                  Y                   Z               Mass       
    ------------   -----------------  -----------------  -----------------  -----------------
         C           -2.403445730168   -12.195537115532     1.545696005287    12.000000000000
         C            0.071160269832    10.069382884468    -5.185022994713    12.000000000000
         C            1.073807269832    10.509792884468    -4.100440994713    12.000000000000
         C            1.619646269832     9.452712884468    -3.122289994713    12.000000000000
         C            1.765459269832     9.798932884468    -1.628213994713    12.000000000000
         C            1.364228269832    11.198952884468    -1.127161994713    12.000000000000
         C            0.598283269832    11.319242884468     0.204973005287    12.000000000000
         C            0.264818269832    10.035042884468     0.987402005287    12.000000000000
         C           -1.114920730168     9.884542884468     1.655892005287    12.000000000000
         C           -2.150316730168    11.017862884468     1.530157005287    12.000000000000
         C           -3.623102730168    10.651812884468     1.260935005287    12.000000000000
         C           -4.002269730168     9.165372884468     1.124133005287    12.000000000000
         C           -5.000887730168     8.726422884468     0.036310005287    12.000000000000
         C           -5.613483730168     9.776252884468    -0.909544994713    12.000000000000
         C           -5.770972730168     9.425622884468    -2.402082994713    12.000000000000
         C           -5.308460730168     8.040422884468    -2.891345994713    12.000000000000
         C           -4.542932730168     7.919632884468    -4.222621994713    12.000000000000
         C           -4.253535730168     9.183412884468    -5.054143994713    12.000000000000
         C           -2.865940730168     9.339992884468    -5.706337994713    12.000000000000
         C           -1.823996730168     8.223402884468    -5.507352994713    12.000000000000
         C           -0.350753730168     8.589432884468    -5.244784994713    12.000000000000
         C            0.578297269832     7.531202884468    -4.621515994713    12.000000000000
         C            1.582985269832     7.971052884468    -3.540536994713    12.000000000000
         C            2.159804269832     6.910052884468    -2.585106994713    12.000000000000
         C            2.305036269832     7.256062884468    -1.091661994713    12.000000000000
         C            1.868763269832     8.651032884468    -0.606731994713    12.000000000000
         C            1.104526269832     8.770952884468     0.724745005287    12.000000000000
         C            0.804171269832     7.492122884468     1.528533005287    12.000000000000
         C           -0.577516730168     7.340322884468     2.191420005287    12.000000000000
         C           -1.607633730168     8.473512884468     2.027696005287    12.000000000000
         C           -3.078233730168     8.107222884468     1.754829005287    12.000000000000
         C           -3.471790730168     6.621342884468     1.663909005287    12.000000000000
         C           -4.474263730168     6.182362884468     0.580608005287    12.000000000000
         C           -5.046458730168     7.243722884468    -0.377235994713    12.000000000000
         C           -5.203172730168     6.893652884468    -1.868617994713    12.000000000000
         C           -4.773666730168     5.496472884468    -2.353453994713    12.000000000000
         C           -4.009372730168     5.375682884468    -3.684655994713    12.000000000000
         C           -3.700935730168     6.656632884468    -4.482053994713    12.000000000000
         C           -2.316326730168     6.811802884468    -5.137617994713    12.000000000000
         C           -1.286261730168     5.679032884468    -4.976805994713    12.000000000000
         C            0.186141269832     6.044882884468    -4.713366994713    12.000000000000
         C            1.114552269832     4.988782884468    -4.085527994713    12.000000000000
         C            2.119543269832     5.428802884468    -3.004372994713    12.000000000000
         C            2.695861269832     4.367912884468    -2.048110994713    12.000000000000
         C            2.841605269832     4.713672884468    -0.554569994713    12.000000000000
         C            2.407936269832     6.109322884468    -0.068717994713    12.000000000000
         C            1.645612269832     6.229482884468     1.264031005287    12.000000000000
         C            1.340921269832     4.949092884468     2.064011005287    12.000000000000
         C           -0.043653730168     4.795472884468     2.720425005287    12.000000000000
         C           -1.073368730168     5.929542884468     2.560268005287    12.000000000000
         C           -2.545945730168     5.564772884468     2.294682005287    12.000000000000
         C           -2.940705730168     4.078972884468     2.204212005287    12.000000000000
         C           -3.944107730168     3.640292884468     1.121507005287    12.000000000000
         C           -4.516505730168     4.700732884468     0.162874005287    12.000000000000
         C           -4.667524730168     4.351072884468    -1.329418994713    12.000000000000
         C           -4.234556730168     2.954652884468    -1.814421994713    12.000000000000
         C           -3.470935730168     2.833012884468    -3.145758994713    12.000000000000
         C           -3.164549730168     4.114292884468    -3.944198994713    12.000000000000
         C           -1.781541730168     4.269442884468    -4.604176994713    12.000000000000
         C           -0.750954730168     3.136562884468    -4.446908994713    12.000000000000
         C            0.719997269832     3.502832884468    -4.174499994713    12.000000000000
         C            1.647047269832     2.447042884468    -3.544887994713    12.000000000000
         C            2.655741269832     2.886702884468    -2.467484994713    12.000000000000
         C            3.231719269832     1.825002884468    -1.512001994713    12.000000000000
         C            3.378228269832     2.170732884468    -0.018356994713    12.000000000000
         C            2.944722269832     3.566362884468     0.467703005287    12.000000000000
         C            2.182860269832     3.686512884468     1.800665005287    12.000000000000
         C            1.876384269832     2.405482884468     2.599041005287    12.000000000000
         C            0.490490269832     2.251292884468     3.252636005287    12.000000000000
         C           -0.539140730168     3.384772884468     3.089414005287    12.000000000000
         C           -2.012977730168     3.021102884468     2.830509005287    12.000000000000
         C           -2.408620730168     1.535252884468     2.741779005287    12.000000000000
         C           -3.419687730168     1.097942884468     1.665589005287    12.000000000000
         C           -3.985399730168     2.158842884468     0.703522005287    12.000000000000
         C           -4.121960730168     1.810382884468    -0.790406994713    12.000000000000
         C           -3.676470730168     0.416892884468    -1.271868994713    12.000000000000
         C           -2.858062730168     0.301072884468    -2.571924994713    12.000000000000
         C           -2.623641730168     1.573332884468    -3.407198994713    12.000000000000
         C           -1.251776730168     1.726962884468    -4.082115994713    12.000000000000
         C           -0.231375730168     0.600052884468    -3.850577994713    12.000000000000
         C            1.248749269832     0.962442884468    -3.628496994713    12.000000000000
         C            2.184229269832    -0.094577115532    -3.012949994713    12.000000000000
         C            3.190018269832     0.343822884468    -1.932087994713    12.000000000000
         C            3.764329269832    -0.718487115532    -0.976254994713    12.000000000000
         C            3.915196269832    -0.372157115532     0.516820005287    12.000000000000
         C            3.482099269832     1.023422884468     1.003845005287    12.000000000000
         C            2.718381269832     1.142882884468     2.335838005287    12.000000000000
         C            2.410291269832    -0.138737115532     3.132580005287    12.000000000000
         C            1.025465269832    -0.291897115532     3.788549005287    12.000000000000
         C           -0.004796730168     0.841072884468     3.623783005287    12.000000000000
         C           -1.478015730168     0.476512884468     3.362294005287    12.000000000000
         C           -1.871745730168    -1.009457115532     3.269889005287    12.000000000000
         C           -2.883579730168    -1.446987115532     2.194409005287    12.000000000000
         C           -3.464862730168    -0.382817115532     1.245391005287    12.000000000000
         C           -3.617616730168    -0.725637115532    -0.247946994713    12.000000000000
         C           -3.155015730168    -2.102087115532    -0.746750994713    12.000000000000
         C           -2.340640730168    -2.191657115532    -2.051334994713    12.000000000000
         C           -2.223006730168    -1.022397115532    -3.054931994713    12.000000000000
         C           -0.729805730168    -0.780147115532    -3.380828994713    12.000000000000
         C            0.295589269832    -1.928417115532    -3.317397994713    12.000000000000
         C            1.777978269832    -1.577977115532    -3.091998994713    12.000000000000
         C            2.706701269832    -2.637118115532    -2.471447994713    12.000000000000
         C            3.716055269832    -2.200235115532    -1.393563994713    12.000000000000
         C            4.292560269832    -3.262965115532    -0.439982994713    12.000000000000
         C            4.450968269832    -2.915828115532     1.051970005287    12.000000000000
         C            4.018721269832    -1.519877115532     1.538748005287    12.000000000000
         C            3.252459269832    -1.401167115532     2.869384005287    12.000000000000
         C            2.946178269832    -2.682303115532     3.667330005287    12.000000000000
         C            1.561080269832    -2.835593115532     4.322642005287    12.000000000000
         C            0.530612269832    -1.702807115532     4.157653005287    12.000000000000
         C           -0.941300730168    -2.068387115532     3.890000005287    12.000000000000
         C           -1.332866730168    -3.554373115532     3.791841005287    12.000000000000
         C           -2.336432730168    -3.991365115532     2.708619005287    12.000000000000
         C           -2.919254730168    -2.924902115532     1.762944005287    12.000000000000
         C           -3.068897730168    -3.258387115532     0.266912005287    12.000000000000
         C           -2.656205730168    -4.656737115532    -0.227705994713    12.000000000000
         C           -1.892812730168    -4.774749115532    -1.559623994713    12.000000000000
         C           -1.571150730168    -3.491864115532    -2.349317994713    12.000000000000
         C           -0.192321730168    -3.355044115532    -3.013811994713    12.000000000000
         C            0.838111269832    -4.486215115532    -2.838642994713    12.000000000000
         C            2.309237269832    -4.121632115532    -2.564367994713    12.000000000000
         C            3.234886269832    -5.180187115532    -1.937571994713    12.000000000000
         C            4.243760269832    -4.744312115532    -0.858535994713    12.000000000000
         C            4.822277269832    -5.807520115532     0.093659005287    12.000000000000
         C            4.982664269832    -5.460086115532     1.585156005287    12.000000000000
         C            4.554296269832    -4.063592115532     2.073828005287    12.000000000000
         C            3.789527269832    -3.944183115532     3.405369005287    12.000000000000
         C            3.481908269832    -5.225304115532     4.203290005287    12.000000000000
         C            2.096074269832    -5.379038115532     4.857019005287    12.000000000000
         C            1.065505269832    -4.246622115532     4.690068005287    12.000000000000
         C           -0.405450730168    -4.612280115532     4.417325005287    12.000000000000
         C           -0.797144730168    -6.097986115532     4.317629005287    12.000000000000
         C           -1.788063730168    -6.537903115532     3.224125005287    12.000000000000
         C           -2.377400730168    -5.470824115532     2.281960005287    12.000000000000
         C           -2.557466730168    -5.808527115532     0.790094005287    12.000000000000
         C           -2.146848730168    -7.206323115532     0.292101005287    12.000000000000
         C           -1.378229730168    -7.324638115532    -1.036712994713    12.000000000000
         C           -1.055593730168    -6.040877115532    -1.823864994713    12.000000000000
         C            0.337728269832    -5.893750115532    -2.463633994713    12.000000000000
         C            1.363974269832    -7.028889115532    -2.287336994713    12.000000000000
         C            2.838201269832    -6.664768115532    -2.030904994713    12.000000000000
         C            3.767869269832    -7.721971115532    -1.408791994713    12.000000000000
         C            4.771212269832    -7.288892115532    -0.324154994713    12.000000000000
         C            5.336687269832    -8.357560115532     0.629986005287    12.000000000000
         C            5.509638269832    -8.006034115532     2.119788005287    12.000000000000
         C            5.084549269832    -6.608108115532     2.606413005287    12.000000000000
         C            4.321659269832    -6.488790115532     3.938592005287    12.000000000000
         C            4.013529269832    -7.772096115532     4.732309005287    12.000000000000
         C            2.623815269832    -7.929338115532     5.378539005287    12.000000000000
         C            1.598977269832    -6.790585115532     5.220069005287    12.000000000000
         C            0.126891269832    -7.152878115532     4.951770005287    12.000000000000
         C           -0.260200730168    -8.639333115532     4.853863005287    12.000000000000
         C           -1.207997730168    -9.086200115532     3.724034005287    12.000000000000
         C           -1.818699730168    -8.017622115532     2.795805005287    12.000000000000
         C           -2.041581730168    -8.356515115532     1.310055005287    12.000000000000
         C           -1.654113730168    -9.758533115532     0.806624005287    12.000000000000
         C           -0.871587730168    -9.875732115532    -0.515295994713    12.000000000000
         C           -0.536951730168    -8.589042115532    -1.292697994713    12.000000000000
         C            0.867201269832    -8.436777115532    -1.907193994713    12.000000000000
         C            1.893556269832    -9.570498115532    -1.716426994713    12.000000000000
         C            3.375635269832    -9.207185115532    -1.503427994713    12.000000000000
         C            4.353541269832   -10.256977115532    -0.943776994713    12.000000000000
         C            5.306524269832    -9.834141115532     0.191507005287    12.000000000000
         C            5.657982269832    -9.133300115532     3.158676005287    12.000000000000
         C            4.886871269832    -9.017280115532     4.488167005287    12.000000000000
         C            2.119396269832    -9.329451115532     5.777665005287    12.000000000000
         C            0.630865269832    -9.672239115532     5.568732005287    12.000000000000
         C           -1.231659730168   -10.562794115532     3.283497005287    12.000000000000
         C           -1.607854730168   -10.907688115532     1.830081005287    12.000000000000
         C           -0.046124730168   -11.142730115532    -0.805152994713    12.000000000000
         C            1.390504269832   -10.975886115532    -1.335770994713    12.000000000000
         H           -1.711038730168   -13.066581115532     1.523090005287     1.007825032230
         H           -3.162657730168   -12.350167115532     2.344690005287     1.007825032230
         H           -2.918627730168   -12.108188115532     0.563068005287     1.007825032230
         H           -0.125646730168    10.718192884468    -6.039152994713     1.007825032230
         H            1.575218269832    11.474622884468    -4.183065994713     1.007825032230
         H            1.820439269832    12.082112884468    -1.575749994713     1.007825032230
         H            0.517808269832    12.287002884468     0.700993005287     1.007825032230
         H           -1.889675730168    12.024952884468     1.857198005287     1.007825032230
         H           -4.406571730168    11.392852884468     1.422545005287     1.007825032230
         H           -6.155469730168    10.624802884468    -0.490557994713     1.007825032230
         H           -6.412024730168    10.034892884468    -3.040187994713     1.007825032230
         H           -5.081686730168     9.814172884468    -5.378878994713     1.007825032230
         H           -2.713077730168    10.084122884468    -6.488535994713     1.007825032230
         H            4.589460269832   -11.136497115532    -1.543813994713     1.007825032230
         H            6.095751269832   -10.510523115532     0.520876005287     1.007825032230
         H            6.486116269832    -9.837250115532     3.071085005287     1.007825032230
         H            5.150324269832    -9.661747115532     5.327264005287     1.007825032230
         H            2.739780269832    -9.963896115532     6.411472005287     1.007825032230
         H            0.163043269832   -10.435223115532     6.191996005287     1.007825032230
         H           -0.815879730168   -11.331855115532     3.934427005287     1.007825032230
         H           -0.558428730168   -12.096969115532    -0.930026994713     1.007825032230
         H            2.089262269832   -11.811595115532    -1.294212994713     1.007825032230
         H           -2.725938890168    -1.323155015532    -3.981170144713     1.007825032230

  Running in c1 symmetry.

  Rotational constants: A =      0.00058  B =      0.00016  C =      0.00016 [cm^-1]
  Rotational constants: A =     17.46041  B =      4.82118  C =      4.79733 [MHz]
  Nuclear repulsion = 39536.678225202813337

  Charge       = 0
  Multiplicity = 2
  Electrons    = 1049
  Nalpha       = 525
  Nbeta        = 524

  ==> Algorithm <==

  SCF Algorithm Type is DF.
  DIIS enabled.
  MOM disabled.
  Fractional occupation disabled.
  Guess Type is SAD.
  Energy threshold   = 1.00e-08
  Density threshold  = 1.00e-08
  Integral threshold = 1.00e-12

  ==> Primary Basis <==

  Basis Set: 6-31G(D)
    Blend: 6-31G(D)
    Number of shells: 1072
    Number of basis functions: 2611
    Number of Cartesian functions: 2611
    Spherical Harmonics?: false
    Max angular momentum: 2

  ==> DFT Potential <==

   => Composite Functional: PBE <= 

    PBE GGA Exchange-Correlation Functional

    J.P. Perdew et. al., Phys. Rev. Lett., 77(18), 3865-3868, 1996


    Deriv               =              1
    GGA                 =           TRUE
    Meta                =          FALSE

    Exchange Hybrid     =          FALSE
    MP2 Hybrid          =          FALSE

   => Exchange Functionals <=

    1.0000     XC_GGA_X_PBE

   => Correlation Functionals <=

    1.0000     XC_GGA_C_PBE

   => LibXC Density Thresholds  <==

    XC_GGA_C_PBE:  1.00E-12 
    XC_GGA_X_PBE:  1.00E-15 

   => Molecular Quadrature <=

    Radial Scheme          =       TREUTLER
    Pruning Scheme         =           NONE
    Nuclear Scheme         =       TREUTLER

    BS radius alpha        =              1
    Pruning alpha          =              1
    Radial Points          =             75
    Spherical Points       =            302
    Total Points           =        3703661
    Total Blocks           =          24719
    Max Points             =            256
    Max Functions          =            723
    Weights Tolerance      =       1.00E-15

   => Loading Basis Set <=

    Name: (6-31G(D) AUX)
    Role: JKFIT
    Keyword: DF_BASIS_SCF
    atoms 1-171   entry C          line   121 file /home/adamcronin/.conda/envs/p4env/share/psi4/basis/cc-pvdz-jkfit.gbs 
    atoms 172-194 entry H          line    51 file /home/adamcronin/.conda/envs/p4env/share/psi4/basis/cc-pvdz-jkfit.gbs 

  ==> Integral Setup <==

