
    -----------------------------------------------------------------------
          Psi4: An Open-Source Ab Initio Electronic Structure Package
                               Psi4 1.1 release

                         Git: Rev {HEAD} add49b9 


    R. M. Parrish, L. A. Burns, D. G. A. Smith, A. C. Simmonett,
    A. E. DePrince III, E. G. Hohenstein, U. Bozkaya, A. Yu. Sokolov,
    R. Di Remigio, R. M. Richard, J. F. Gonthier, A. M. James,
    H. R. McAlexander, A. Kumar, M. Saitow, X. Wang, B. P. Pritchard,
    P. Verma, H. F. Schaefer III, K. Patkowski, R. A. King, E. F. Valeev,
    F. A. Evangelista, J. M. Turney, T. D. Crawford, and C. D. Sherrill,
    J. Chem. Theory Comput. in press (2017).
    (doi: 10.1021/acs.jctc.7b00174)

    -----------------------------------------------------------------------


    Psi4 started on: Saturday, 19 December 2020 02:03AM

    Process ID:  11745
    PSIDATADIR: /usr/local/Dist/psi4conda/share/psi4
    Memory:     500.0 MiB
    Threads:    10
    
  ==> Input File <==

--------------------------------------------------------------------------
molecule{
0 2
C    0.00000000  0.00000000  0.00000000
C    1.93309346  21.0171339 -6.30955738
C    2.82948724  21.4085566 -5.33626156
C    3.32009733  20.4605234 -4.37482684
C    3.45702410  20.7851479 -2.96943738
C    3.11116243  22.0765885 -2.44381700
C    2.42696939  22.1855516 -1.25043256
C    2.05063011  21.0090007 -0.51703566
C    0.74988531  20.8694217  0.10557470
C   -0.24992570  21.8983107  0.03101755
C   -1.57042607  21.5741023 -0.20392569
C   -1.96346059  20.2032255 -0.37734669
C   -2.90459290  19.7924215 -1.39937245
C   -3.50733185  20.7286835 -2.30707073
C   -3.63767343  20.4198553 -3.64564329
C   -3.17295729  19.1576531 -4.15019375
C   -2.45458723  19.0431354 -5.40320627
C   -2.15916390  20.1841637 -6.22456455
C   -0.92021386  20.3169139 -6.81739714
C    0.09139001  19.3158187 -6.62153600
C    1.47790905  19.6560759 -6.37475127
C    2.31074698  18.6736627 -5.75826777
C    3.24687184  19.0825351 -4.74171780
C    3.76739093  18.0792613 -3.85564462
C    3.90223543  18.3983209 -2.47441531
C    3.51128091  19.7080885 -2.03354610
C    2.79664431  19.8218554 -0.78722957
C    2.51447037  18.6192225 -0.05456771
C    1.23603449  18.4819950  0.55728861
C    0.29008207  19.5528792  0.41232833
C   -1.08906393  19.2142473  0.16683970
C   -1.44125758  17.8246003  0.08043090
C   -2.36626845  17.4208626 -0.92401854
C   -2.90284628  18.4225685 -1.80228340
C   -3.03923805  18.0999955 -3.20026423
C   -2.63158419  16.7943830 -3.63830512
C   -1.92547856  16.6818630 -4.86974757
C   -1.65457039  17.8794905 -5.61472100
C   -0.36066295  18.0180230 -6.23400900
C    0.58683673  16.9509635 -6.07172168
C    1.94951341  17.2854219 -5.82902637
C    2.81332214  16.2905531 -5.25731395
C    3.74451315  16.6973184 -4.24620001
C    4.27898816  15.7073770 -3.36541401
C    4.41558129  16.0298683 -1.96965480
C    4.01064270  17.3259890 -1.52516647
C    3.29985447  17.4391496 -0.28542719
C    3.02282268  16.2515770  0.45928826
C    1.73074151  16.1127490  1.07731611
C    0.78120192  17.1686947  0.91951767
C   -0.59058734  16.8318427  0.67511015
C   -0.95653308  15.4528396  0.59826764
C   -1.89146864  15.0449166 -0.41671587
C   -2.41328463  16.0364449 -1.30331448
C   -2.54921675  15.7155075 -2.69385579
C   -2.15832798  14.4160143 -3.14108648
C   -1.44482768  14.3022377 -4.38557922
C   -1.15798741  15.4939046 -5.11985156
C    0.12918279  15.6317332 -5.73559804
C    1.07711926  14.5723857 -5.59147628
C    2.45416793  14.9104283 -5.34604380
C    3.30728177  13.9212455 -4.75720728
C    4.23675797  14.3272920 -3.74830923
C    4.76935236  13.3301617 -2.86072166
C    4.90570874  13.6512852 -1.47117692
C    4.50384353  14.9568651 -1.02423904
C    3.79455854  15.0697318  0.21307699
C    3.51314943  13.8727364  0.95751815
C    2.22660037  13.7342910  1.57243885
C    1.27281110  14.7986426  1.41876078
C   -0.09616424  14.4624796  1.17457753
C   -0.46033178  13.0744489  1.09284993
C   -1.39139244  12.6685037  0.08244179
C   -1.92130426  13.6663383 -0.80598105
C   -2.05738716  13.3459229 -2.19364993
C   -1.65925831  12.0394233 -2.64151120
C   -0.94884389  11.9260623 -3.88050944
C   -0.66462320  13.1239567 -4.62234258
C    0.62011635  13.2615552 -5.23647825
C    1.57323513  12.1962814 -5.08533312
C    2.94417201  12.5329701 -4.84067070
C    3.80274190  11.5444855 -4.26325983
C    4.73837879  11.9531325 -3.24877860
C    5.26289674  10.9607238 -2.36131711
C    5.39960387  11.2818750 -0.97181215
C    5.00616865  12.5828789 -0.52448115
C    4.29246944  12.6962321  0.72033514
C    4.00655274  11.5027289  1.45655012
C    2.71991349  11.3640305  2.07117138
C    1.77016935  12.4247298  1.92553779
C    0.39293091  12.0865820  1.67935241
C    0.03310678  10.7043821  1.59073978
C   -0.89834828  10.2988797  0.58055961
C   -1.43319398  11.2906727 -0.30124436
C   -1.57089522  10.9679281 -1.69724174
C   -1.16795827  9.66906359 -2.14308683
C   -0.45733613  9.55565576 -3.38191052
C   -0.17780403  10.7457579 -4.12603403
C    1.11515088  10.8844039 -4.74314816
C    2.06563127  9.82633626 -4.58487027
C    3.43646922  10.1631498 -4.34002914
C    4.29483433  9.17031756 -3.75422659
C    5.22572502  9.57662199 -2.74678132
C    5.76319518  8.58414033 -1.86422963
C    5.90083196  8.90673686 -0.46854669
C    5.49407678  10.2062395 -0.02307383
C    4.78417164  10.3184448  1.21394044
C    4.50631631  9.12653254  1.95937703
C    3.21370503  8.98675546  2.57607576
C    2.26193721  10.0464329  2.41831887
C    0.89297288  9.71052885  2.17323500
C    0.52633721  8.32781124  2.09555711
C   -0.40969363  7.92154962  1.08090700
C   -0.93404416  8.91545812  0.19308205
C   -1.07211721  8.59362870 -1.19425535
C   -0.68162692  7.28967804 -1.64255907
C    0.03257076  7.17591062 -2.88658012
C    0.32132733  8.37141203 -3.62202358
C    1.60725533  8.50986483 -4.23390494
C    2.55758118  7.44809815 -4.08597969
C    3.93448313  7.78625055 -3.84098801
C    4.78635794  6.80079886 -3.25400937
C    5.72067336  7.20803757 -2.24593805
C    6.24161672  6.20972491 -1.35444247
C    6.37828933  6.52899030  0.02646516
C    5.98926776  7.83691490  0.47441604
C    5.27691520  7.94863538  1.71342162
C    4.98666862  6.74632170  2.44394525
C    3.70671281  6.60680087  3.05228627
C    2.75666051  7.67556123  2.91430773
C    1.38487596  7.33949341  2.66890029
C    1.02954503  5.95154169  2.57315584
C    0.10332856  5.55161194  1.56828421
C   -0.44098629  6.54782395  0.69136750
C   -0.58017720  6.22300194 -0.69714743
C   -0.16973140  4.91846293 -1.13972476
C    0.53796393  4.80729692 -2.36884358
C    0.81225491  6.00135411 -3.11972254
C    2.10122431  6.14157601 -3.72954762
C    3.05286261  5.08087177 -3.55814048
C    4.41655090  5.41479983 -3.32028037
C    5.27600140  4.41668719 -2.74825362
C    6.21671738  4.82565031 -1.73656481
C    6.78393550  3.84001641 -0.87311370
C    6.92510812  4.16558837  0.53150205
C    6.48574867  5.45153377  0.96985262
C    5.76817141  5.56325598  2.21479815
C    5.51315907  4.38461958  2.97929768
C    4.20846038  4.23967996  3.59231789
C    3.25721536  5.28807329  3.40358518
C    1.87887596  4.95038838  3.15471713
C    1.49545961  3.57519233  3.09971157
C    0.54327406  3.17374273  2.08704514
C    0.05647982  4.16915722  1.19145531
C   -0.08501006  3.83428581 -0.20168047
C    0.24807984  2.51578729 -0.65099549
C    0.98594196  2.40947509 -1.89756329
C    1.30552602  3.61733865 -2.60003403
C    2.60122475  3.76155790 -3.21422835
C    3.54704240  2.69784315 -3.11052743
C    4.93323591  3.03591961 -2.86461935
C    5.86620668  2.09201478 -2.31517741
C    6.76759707  2.48359199 -1.34651281
C    7.06158202  3.15409976  1.54264590
C    6.37417899  3.26081544  2.73413590
C    3.68859211  2.95928981  3.98552796
C    2.36937548  2.63505095  3.74295930
C    0.34147451  1.81467355  1.67911870
C    0.17036225  1.46303822  0.34965920
C    1.76309220  1.25450711 -2.26644047
C    3.00780956  1.39574430 -2.84577856
H    0.96694494 -0.52645454 -0.10515561
H   -0.55631637 -0.51295973  0.80252019
H   -0.56198100 -0.13691387 -0.93806047
H    1.45975807  21.7819994 -6.93278783
H    3.04496074  22.4741860 -5.21177507
H    3.25389801  22.9719211 -3.05658944
H    2.04398627  23.1645523 -0.94651788
H    0.04949635  22.9506225  0.00940855
H   -2.28560007  22.3773043 -0.40610782
H   -3.72844089  21.7473875 -1.97416021
H   -3.95902747  21.2012809 -4.34105074
H   -2.85798022  21.0254009 -6.26286659
H   -0.66711634  21.2601262 -7.31113580
H    5.76754550  1.02749943 -2.54892716
H    7.36258994  1.71994687 -0.83632771
H    7.59000317  2.22288688  1.31654394
H    6.37450511  2.41170129  3.42441083
H    4.36993315  2.17848772  4.33689220
H    2.03712320  1.60471442  3.90360513
H    0.42242566  1.00997614  2.41939886
H    1.43856881  0.25569591 -1.97428399
H    3.63357620  0.50709692 -2.97471597
H    0.43176647  10.5258995 -5.51292758
}
memory 20 GB
set reference uhf
set basis 6-31G(d)
optimize('pbe')
--------------------------------------------------------------------------

  Memory set to  18.626 GiB by Python driver.
gradient() will perform analytic gradient computation.

*** tstart() called on node01.cluster
*** at Sat Dec 19 02:03:22 2020

   => Loading Basis Set <=

    Name: 6-31G(D)
    Role: ORBITAL
    Keyword: BASIS
    atoms 1-171   entry C          line   102 file /usr/local/Dist/psi4conda/share/psi4/basis/6-31g_d_.gbs 
    atoms 172-194 entry H          line    35 file /usr/local/Dist/psi4conda/share/psi4/basis/6-31g_d_.gbs 


         ---------------------------------------------------------
                                   SCF
            by Justin Turney, Rob Parrish, and Andy Simmonett
                              UKS Reference
                       10 Threads,  19073 MiB Core
         ---------------------------------------------------------

  ==> Geometry <==

    Molecular point group: c1
    Full point group: C1

    Geometry (in Angstrom), charge = 0, multiplicity = 2:

       Center              X                  Y                   Z               Mass       
    ------------   -----------------  -----------------  -----------------  -----------------
           C         -1.779126869676   -11.636835536305     1.450929744347    12.000000000000
           C          0.153966590324     9.380298363695    -4.858627635653    12.000000000000
           C          1.050360370324     9.771721063695    -3.885331815653    12.000000000000
           C          1.540970460324     8.823687863695    -2.923897095653    12.000000000000
           C          1.677897230324     9.148312363695    -1.518507635653    12.000000000000
           C          1.332035560324    10.439752963695    -0.992887255653    12.000000000000
           C          0.647842520324    10.548716063695     0.200497184347    12.000000000000
           C          0.271503240324     9.372165163695     0.933894084347    12.000000000000
           C         -1.029241559676     9.232586163695     1.556504444347    12.000000000000
           C         -2.029052569676    10.261475163695     1.481947294347    12.000000000000
           C         -3.349552939676     9.937266763695     1.247004054347    12.000000000000
           C         -3.742587459676     8.566389963695     1.073583054347    12.000000000000
           C         -4.683719769676     8.155585963695     0.051557294347    12.000000000000
           C         -5.286458719676     9.091847963695    -0.856140985653    12.000000000000
           C         -5.416800299676     8.783019763695    -2.194713545653    12.000000000000
           C         -4.952084159676     7.520817563695    -2.699264005653    12.000000000000
           C         -4.233714099676     7.406299863695    -3.952276525653    12.000000000000
           C         -3.938290769676     8.547328163695    -4.773634805653    12.000000000000
           C         -2.699340729676     8.680078363695    -5.366467395653    12.000000000000
           C         -1.687736859676     7.678983163695    -5.170606255653    12.000000000000
           C         -0.301217819676     8.019240363695    -4.923821525653    12.000000000000
           C          0.531620110324     7.036827163695    -4.307338025653    12.000000000000
           C          1.467744970324     7.445699563695    -3.290788055653    12.000000000000
           C          1.988264060324     6.442425763695    -2.404714875653    12.000000000000
           C          2.123108560324     6.761485363695    -1.023485565653    12.000000000000
           C          1.732154040324     8.071252963695    -0.582616355653    12.000000000000
           C          1.017517440324     8.185019863695     0.663700174347    12.000000000000
           C          0.735343500324     6.982386963695     1.396362034347    12.000000000000
           C         -0.543092379676     6.845159463695     2.008218354347    12.000000000000
           C         -1.489044799676     7.916043663695     1.863258074347    12.000000000000
           C         -2.868190799676     7.577411763695     1.617769444347    12.000000000000
           C         -3.220384449676     6.187764763695     1.531360644347    12.000000000000
           C         -4.145395319676     5.784027063695     0.526911204347    12.000000000000
           C         -4.681973149676     6.785732963695    -0.351353655653    12.000000000000
           C         -4.818364919676     6.463159963695    -1.749334485653    12.000000000000
           C         -4.410711059676     5.157547463695    -2.187375375653    12.000000000000
           C         -3.704605429676     5.045027463695    -3.418817825653    12.000000000000
           C         -3.433697259676     6.242654963695    -4.163791255653    12.000000000000
           C         -2.139789819676     6.381187463695    -4.783079255653    12.000000000000
           C         -1.192290139676     5.314127963695    -4.620791935653    12.000000000000
           C          0.170386540324     5.648586363695    -4.378096625653    12.000000000000
           C          1.034195270324     4.653717563695    -3.806384205653    12.000000000000
           C          1.965386280324     5.060482863695    -2.795270265653    12.000000000000
           C          2.499861290324     4.070541463695    -1.914484265653    12.000000000000
           C          2.636454420324     4.393032763695    -0.518725055653    12.000000000000
           C          2.231515830324     5.689153463695    -0.074236725653    12.000000000000
           C          1.520727600324     5.802314063695     1.165502554347    12.000000000000
           C          1.243695810324     4.614741463695     1.910218004347    12.000000000000
           C         -0.048385359676     4.475913463695     2.528245854347    12.000000000000
           C         -0.997924949676     5.531859163695     2.370447414347    12.000000000000
           C         -2.369714209676     5.195007163695     2.126039894347    12.000000000000
           C         -2.735659949676     3.816004063695     2.049197384347    12.000000000000
           C         -3.670595509676     3.408081063695     1.034213874347    12.000000000000
           C         -4.192411499676     4.399609363695     0.147615264347    12.000000000000
           C         -4.328343619676     4.078671963695    -1.242926045653    12.000000000000
           C         -3.937454849676     2.779178763695    -1.690156735653    12.000000000000
           C         -3.223954549676     2.665402163695    -2.934649475653    12.000000000000
           C         -2.937114279676     3.857069063695    -3.668921815653    12.000000000000
           C         -1.649944079676     3.994897663695    -4.284668295653    12.000000000000
           C         -0.702007609676     2.935550163695    -4.140546535653    12.000000000000
           C          0.675041060324     3.273592763695    -3.895114055653    12.000000000000
           C          1.528154900324     2.284409963695    -3.306277535653    12.000000000000
           C          2.457631100324     2.690456463695    -2.297379485653    12.000000000000
           C          2.990225490324     1.693326163695    -1.409791915653    12.000000000000
           C          3.126581870324     2.014449663695    -0.020247175653    12.000000000000
           C          2.724716660324     3.320029563695     0.426690704347    12.000000000000
           C          2.015431670324     3.432896263695     1.664006734347    12.000000000000
           C          1.734022560324     2.235900863695     2.408447894347    12.000000000000
           C          0.447473500324     2.097455463695     3.023368594347    12.000000000000
           C         -0.506315769676     3.161807063695     2.869690524347    12.000000000000
           C         -1.875291109676     2.825644063695     2.625507274347    12.000000000000
           C         -2.239458649676     1.437613363695     2.543779674347    12.000000000000
           C         -3.170519309676     1.031668163695     1.533371534347    12.000000000000
           C         -3.700431129676     2.029502763695     0.644948694347    12.000000000000
           C         -3.836514029676     1.709087363695    -0.742720185653    12.000000000000
           C         -3.438385179676     0.402587763695    -1.190581455653    12.000000000000
           C         -2.727970759676     0.289226763695    -2.429579695653    12.000000000000
           C         -2.443750069676     1.487121163695    -3.171412835653    12.000000000000
           C         -1.159010519676     1.624719663695    -3.785548505653    12.000000000000
           C         -0.205891739676     0.559445863695    -3.634403375653    12.000000000000
           C          1.165045140324     0.896134563695    -3.389740955653    12.000000000000
           C          2.023615030324    -0.092350036305    -2.812330085653    12.000000000000
           C          2.959251920324     0.316296963695    -1.797848855653    12.000000000000
           C          3.483769870324    -0.676111736305    -0.910387365653    12.000000000000
           C          3.620477000324    -0.354960536305     0.479117594347    12.000000000000
           C          3.227041780324     0.946043363695     0.926448594347    12.000000000000
           C          2.513342570324     1.059396563695     2.171264884347    12.000000000000
           C          2.227425870324    -0.134106636305     2.907479864347    12.000000000000
           C          0.940786620324    -0.272805036305     3.522101124347    12.000000000000
           C         -0.008957519676     0.787894263695     3.376467534347    12.000000000000
           C         -1.386195959676     0.449746463695     3.130282154347    12.000000000000
           C         -1.746020089676    -0.932453436305     3.041669524347    12.000000000000
           C         -2.677475149676    -1.337955836305     2.031489354347    12.000000000000
           C         -3.212320849676    -0.346162836305     1.149685384347    12.000000000000
           C         -3.350022089676    -0.668907436305    -0.246311995653    12.000000000000
           C         -2.947085139676    -1.967771946305    -0.692157085653    12.000000000000
           C         -2.236462999676    -2.081179776305    -1.930980775653    12.000000000000
           C         -1.956930899676    -0.891077636305    -2.675104285653    12.000000000000
           C         -0.663975989676    -0.752431636305    -3.292218415653    12.000000000000
           C          0.286504400324    -1.810499276305    -3.133940525653    12.000000000000
           C          1.657342350324    -1.473685736305    -2.889099395653    12.000000000000
           C          2.515707460324    -2.466517976305    -2.303296845653    12.000000000000
           C          3.446598150324    -2.060213546305    -1.295851575653    12.000000000000
           C          3.984068310324    -3.052695206305    -0.413299885653    12.000000000000
           C          4.121705090324    -2.730098676305     0.982383054347    12.000000000000
           C          3.714949910324    -1.430596036305     1.427855914347    12.000000000000
           C          3.005044770324    -1.318390736305     2.664870184347    12.000000000000
           C          2.727189440324    -2.510302996305     3.410306774347    12.000000000000
           C          1.434578160324    -2.650080076305     4.027005504347    12.000000000000
           C          0.482810340324    -1.590402636305     3.869248614347    12.000000000000
           C         -0.886153989676    -1.926306686305     3.624164744347    12.000000000000
           C         -1.252789659676    -3.309024296305     3.546486854347    12.000000000000
           C         -2.188820499676    -3.715285916305     2.531836744347    12.000000000000
           C         -2.713171029676    -2.721377416305     1.644011794347    12.000000000000
           C         -2.851244079676    -3.043206836305     0.256674394347    12.000000000000
           C         -2.460753789676    -4.347157496305    -0.191629325653    12.000000000000
           C         -1.746556109676    -4.460924916305    -1.435650375653    12.000000000000
           C         -1.457799539676    -3.265423506305    -2.171093835653    12.000000000000
           C         -0.171871539676    -3.126970706305    -2.782975195653    12.000000000000
           C          0.778454310324    -4.188737386305    -2.635049945653    12.000000000000
           C          2.155356260324    -3.850584986305    -2.390058265653    12.000000000000
           C          3.007231070324    -4.836036676305    -1.803079625653    12.000000000000
           C          3.941546490324    -4.428797966305    -0.795008305653    12.000000000000
           C          4.462489850324    -5.427110626305     0.096487274347    12.000000000000
           C          4.599162460324    -5.107845236305     1.477394904347    12.000000000000
           C          4.210140890324    -3.799920636305     1.925345784347    12.000000000000
           C          3.497788330324    -3.688200156305     3.164351364347    12.000000000000
           C          3.207541750324    -4.890513836305     3.894874994347    12.000000000000
           C          1.927585940324    -5.030034666305     4.503216014347    12.000000000000
           C          0.977533640324    -3.961274306305     4.365237474347    12.000000000000
           C         -0.394250909676    -4.297342126305     4.119830034347    12.000000000000
           C         -0.749581839676    -5.685293846305     4.024085584347    12.000000000000
           C         -1.675798309676    -6.085223596305     3.019213954347    12.000000000000
           C         -2.220113159676    -5.089011586305     2.142297244347    12.000000000000
           C         -2.359304069676    -5.413833596305     0.753782314347    12.000000000000
           C         -1.948858269676    -6.718372606305     0.311204984347    12.000000000000
           C         -1.241162939676    -6.829538616305    -0.917913835653    12.000000000000
           C         -0.966871959676    -5.635481426305    -1.668792795653    12.000000000000
           C          0.322097440324    -5.495259526305    -2.278617875653    12.000000000000
           C          1.273735740324    -6.555963766305    -2.107210735653    12.000000000000
           C          2.637424030324    -6.222035706305    -1.869350625653    12.000000000000
           C          3.496874530324    -7.220148346305    -1.297323875653    12.000000000000
           C          4.437590510324    -6.811185226305    -0.285635065653    12.000000000000
           C          5.004808630324    -7.796819126305     0.577816044347    12.000000000000
           C          5.145981250324    -7.471247166305     1.982431794347    12.000000000000
           C          4.706621800324    -6.185301766305     2.420782364347    12.000000000000
           C          3.989044540324    -6.073579556305     3.665727894347    12.000000000000
           C          3.734032200324    -7.252215956305     4.430227424347    12.000000000000
           C          2.429333510324    -7.397155576305     5.043247634347    12.000000000000
           C          1.478088490324    -6.348762246305     4.854514924347    12.000000000000
           C          0.099749090324    -6.686447156305     4.605646874347    12.000000000000
           C         -0.283667259676    -8.061643206305     4.550641314347    12.000000000000
           C         -1.235852809676    -8.463092806305     3.537974884347    12.000000000000
           C         -1.722647049676    -7.467678316305     2.642385054347    12.000000000000
           C         -1.864136929676    -7.802549726305     1.249249274347    12.000000000000
           C         -1.531047029676    -9.121048246305     0.799934254347    12.000000000000
           C         -0.793184909676    -9.227360446305    -0.446633545653    12.000000000000
           C         -0.473600849676    -8.019496886305    -1.149104285653    12.000000000000
           C          0.822097880324    -7.875277636305    -1.763298605653    12.000000000000
           C          1.767915530324    -8.938992386305    -1.659597685653    12.000000000000
           C          3.154109040324    -8.600915926305    -1.413689605653    12.000000000000
           C          4.087079810324    -9.544820756305    -0.864247665653    12.000000000000
           C          4.988470200324    -9.153243546305     0.104416934347    12.000000000000
           C          5.282455150324    -8.482735776305     2.993575644347    12.000000000000
           C          4.595052120324    -8.376020096305     4.185065644347    12.000000000000
           C          1.909465240324    -8.677545726305     5.436457704347    12.000000000000
           C          0.590248610324    -9.001784586305     5.193889044347    12.000000000000
           C         -1.437652359676    -9.822161986305     3.130048444347    12.000000000000
           C         -1.608764619676   -10.173797316305     1.800588944347    12.000000000000
           C         -0.016034669676   -10.382328426305    -0.815510725653    12.000000000000
           C          1.228682690324   -10.241091236305    -1.394848815653    12.000000000000
           H         -0.812181929676   -12.163290076305     1.345774134347     1.007825032070
           H         -2.335443239676   -12.149795266305     2.253449934347     1.007825032070
           H         -2.341107869676   -11.773749406305     0.512869274347     1.007825032070
           H         -0.319368799676    10.145163863695    -5.481858085653     1.007825032070
           H          1.265833870324    10.837350463695    -3.760845325653     1.007825032070
           H          1.474771140324    11.335085563695    -1.605659695653     1.007825032070
           H          0.264859400324    11.527716763695     0.504411864347     1.007825032070
           H         -1.729630519676    11.313786963695     1.460338294347     1.007825032070
           H         -4.064726939676    10.740468763695     1.044821924347     1.007825032070
           H         -5.507567759676    10.110551963695    -0.523230465653     1.007825032070
           H         -5.738154339676     9.564445363695    -2.890120995653     1.007825032070
           H         -4.637107089676     9.388565363695    -4.811936845653     1.007825032070
           H         -2.446243209676     9.623290663695    -5.860206055653     1.007825032070
           H          3.988418630324   -10.609336106305    -1.097997415653     1.007825032070
           H          5.583463070324    -9.916888666305     0.614602034347     1.007825032070
           H          5.810876300324    -9.413948656305     2.767473684347     1.007825032070
           H          4.595378240324    -9.225134246305     4.875340574347     1.007825032070
           H          2.590806280324    -9.458347816305     5.787821944347     1.007825032070
           H          0.257996330324   -10.032121116305     5.354534874347     1.007825032070
           H         -1.356701209676   -10.626859396305     3.870328604347     1.007825032070
           H         -0.340558059676   -11.381139626305    -0.523354245653     1.007825032070
           H          1.854449330324   -11.129738616305    -1.523786225653     1.007825032070
           H         -1.347360399676    -1.110936036305    -4.061997835653     1.007825032070

  Running in c1 symmetry.

  Rotational constants: A =      0.00067  B =      0.00018  C =      0.00018 [cm^-1]
  Rotational constants: A =     20.16812  B =      5.52791  C =      5.51080 [MHz]
  Nuclear repulsion = 42420.695776339940494

  Charge       = 0
  Multiplicity = 2
  Electrons    = 1049
  Nalpha       = 525
  Nbeta        = 524

  ==> Algorithm <==

  SCF Algorithm Type is DF.
  DIIS enabled.
  MOM disabled.
  Fractional occupation disabled.
  Guess Type is GWH.
  Energy threshold   = 1.00e-08
  Density threshold  = 1.00e-08
  Integral threshold = 0.00e+00

  ==> Primary Basis <==

  Basis Set: 6-31G(D)
    Blend: 6-31G(D)
    Number of shells: 1072
    Number of basis function: 2611
    Number of Cartesian functions: 2611
    Spherical Harmonics?: false
    Max angular momentum: 2

  ==> DFT Potential <==

   => PBE Composite Functional <= 

    PBE GGA Exchange-Correlation Functional

    J.P. Perdew et. al., Phys. Rev. Lett., 77(18), 3865-3868, 1996

    Points   =           5000
    Deriv    =              1
    GGA      =           TRUE
    Meta     =          FALSE

    X_LRC        =          FALSE
    X_Hybrid     =          FALSE
    X_Alpha      =   0.000000E+00
    X_Omega      =   0.000000E+00
    C_LRC        =          FALSE
    C_Hybrid     =          FALSE
    C_Alpha      =   0.000000E+00
    C_Omega      =   0.000000E+00

   => Exchange Functionals <=

    1.0000   PBE_X

   => Correlation Functionals <=

    1.0000   PBE_C

   => Molecular Quadrature <=

    Radial Scheme    =       TREUTLER
    Pruning Scheme   =           FLAT
    Nuclear Scheme   =       TREUTLER

    BS radius alpha  =              1
    Pruning alpha    =              1
    Radial Points    =             75
    Spherical Points =            302
    Total Points     =        4307562
    Total Blocks     =           3113
    Max Points       =           4992
    Max Functions    =            961

   => Loading Basis Set <=

    Name: (6-31G(D) AUX)
    Role: JKFIT
    Keyword: DF_BASIS_SCF
    atoms 1-171   entry C          line   120 file /usr/local/Dist/psi4conda/share/psi4/basis/cc-pvdz-jkfit.gbs 
    atoms 172-194 entry H          line    50 file /usr/local/Dist/psi4conda/share/psi4/basis/cc-pvdz-jkfit.gbs 

  ==> Pre-Iterations <==

   -------------------------------------------------------
    Irrep   Nso     Nmo     Nalpha   Nbeta   Ndocc  Nsocc
   -------------------------------------------------------
     A       2611    2611       0       0       0       0
   -------------------------------------------------------
    Total    2611    2611     525     524     524       1
   -------------------------------------------------------

  ==> Integral Setup <==

  ==> DFJK: Density-Fitted J/K Matrices <==

    J tasked:                  Yes
    K tasked:                   No
    wK tasked:                  No
    OpenMP threads:             10
    Integrals threads:          10
    Memory (MB):             14305
    Algorithm:                Disk
    Integral Cache:           NONE
    Schwarz Cutoff:          1E-12
    Fitting Condition:       1E-12

   => Auxiliary Basis Set <=

  Basis Set: (6-31G(D) AUX)
    Blend: CC-PVDZ-JKFIT
    Number of shells: 4311
    Number of basis function: 14426
    Number of Cartesian functions: 14426
    Spherical Harmonics?: false
    Max angular momentum: 3

  Minimum eigenvalue in the overlap matrix is 6.8612236680E-05.
  Using Symmetric Orthogonalization.

  SCF Guess: Generalized Wolfsberg-Helmholtz.

  ==> Iterations <==

                           Total Energy        Delta E     RMS |[F,P]|

   @DF-UKS iter   1: -2627.99468667750625   -2.62799e+03   1.11098e-01 
   @DF-UKS iter   2: 11948.41986643194832    1.45764e+04   9.66601e-02 DIIS
   @DF-UKS iter   3:  9669.35211222815269   -2.27907e+03   9.07469e-02 DIIS
   @DF-UKS iter   4: -2217.35477103804442   -1.18867e+04   7.42617e-02 DIIS
   @DF-UKS iter   5: -1603.49120576999849    6.13864e+02   6.65539e-02 DIIS
   @DF-UKS iter   6: 13771.43618464592873    1.53749e+04   1.19058e-01 DIIS
   @DF-UKS iter   7: -2065.30590348855912   -1.58367e+04   7.38143e-02 DIIS
   @DF-UKS iter   8:  7888.18482346249220    9.95349e+03   1.15481e-01 DIIS
   @DF-UKS iter   9: -1805.80632427663659   -9.69399e+03   6.18485e-02 DIIS
   @DF-UKS iter  10:  6449.50666253188683    8.25531e+03   1.18684e-01 DIIS
   @DF-UKS iter  11: -3093.80771590334916   -9.54331e+03   6.39156e-02 DIIS
   @DF-UKS iter  12:  1481.18426439144241    4.57499e+03   8.81719e-02 DIIS
   @DF-UKS iter  13: -2517.86519712325389   -3.99905e+03   7.82199e-02 DIIS
   @DF-UKS iter  14:  4206.52843857250264    6.72439e+03   9.65453e-02 DIIS
   @DF-UKS iter  15:  4671.80120283635188    4.65273e+02   1.05513e-01 DIIS
   @DF-UKS iter  16:   539.98132431053091   -4.13182e+03   8.32372e-02 DIIS
   @DF-UKS iter  17:  -723.28875208264071   -1.26327e+03   7.68621e-02 DIIS
   @DF-UKS iter  18:  7224.70154997581267    7.94799e+03   1.11975e-01 DIIS
   @DF-UKS iter  19:  1006.20475719837850   -6.21850e+03   9.25619e-02 DIIS
   @DF-UKS iter  20:  3245.43298972730554    2.23923e+03   1.06775e-01 DIIS
   @DF-UKS iter  21:  4148.69535758077109    9.03262e+02   1.02360e-01 DIIS
   @DF-UKS iter  22:  1369.18590730684082   -2.77951e+03   9.44231e-02 DIIS
   @DF-UKS iter  23:  3204.54211391101853    1.83536e+03   1.02559e-01 DIIS
   @DF-UKS iter  24:  2745.47234148882126   -4.59070e+02   9.86596e-02 DIIS
   @DF-UKS iter  25:  1933.96952756250539   -8.11503e+02   1.01552e-01 DIIS
   @DF-UKS iter  26:  4039.60954345062783    2.10564e+03   1.04608e-01 DIIS
   @DF-UKS iter  27:  2628.39197392200731   -1.41122e+03   1.02471e-01 DIIS
   @DF-UKS iter  28:  3252.19078303842980    6.23799e+02   1.00500e-01 DIIS
   @DF-UKS iter  29:  2213.73705550697923   -1.03845e+03   9.84198e-02 DIIS
   @DF-UKS iter  30:  2706.69641212465649    4.92959e+02   1.05334e-01 DIIS
   @DF-UKS iter  31:  3955.25240428232064    1.24856e+03   1.05934e-01 DIIS
   @DF-UKS iter  32:  2767.39514229392807   -1.18786e+03   9.98257e-02 DIIS
   @DF-UKS iter  33:  2328.63661899311410   -4.38759e+02   1.02824e-01 DIIS
   @DF-UKS iter  34:  3875.43105984099384    1.54679e+03   1.07821e-01 DIIS
   @DF-UKS iter  35:  3045.80566051235655   -8.29625e+02   8.59969e-02 DIIS
   @DF-UKS iter  36:  2354.04044220934156   -6.91765e+02   1.04569e-01 DIIS
   @DF-UKS iter  37:  4211.11807629423129    1.85708e+03   9.21895e-02 DIIS
   @DF-UKS iter  38:  2701.01468391807430   -1.51010e+03   1.00066e-01 DIIS
   @DF-UKS iter  39:  2531.26307567377808   -1.69752e+02   1.03540e-01 DIIS
   @DF-UKS iter  40:  3726.97788944828062    1.19571e+03   1.06448e-01 DIIS
   @DF-UKS iter  41:  3023.46146673984913   -7.03516e+02   1.00356e-01 DIIS
   @DF-UKS iter  42:  2171.64881887774391   -8.51813e+02   1.03208e-01 DIIS
   @DF-UKS iter  43:  4087.27470172475296    1.91563e+03   1.03814e-01 DIIS
   @DF-UKS iter  44:  2026.17380813867931   -2.06110e+03   9.85236e-02 DIIS
   @DF-UKS iter  45:  2913.98913369771617    8.87815e+02   1.05780e-01 DIIS
   @DF-UKS iter  46:  3970.77038481199997    1.05678e+03   1.06002e-01 DIIS
   @DF-UKS iter  47:  2682.23964489578066   -1.28853e+03   9.89315e-02 DIIS
   @DF-UKS iter  48:  2124.58988610320375   -5.57650e+02   1.02706e-01 DIIS
   @DF-UKS iter  49:  4069.71454270849063    1.94512e+03   1.04856e-01 DIIS
   @DF-UKS iter  50:  2346.77341549585253   -1.72294e+03   9.87030e-02 DIIS
   @DF-UKS iter  51:  2514.62530117456481    1.67852e+02   1.03884e-01 DIIS
   @DF-UKS iter  52:  3906.97719267053617    1.39235e+03   1.06858e-01 DIIS
   @DF-UKS iter  53:  2955.29565988969262   -9.51682e+02   1.03064e-01 DIIS
   @DF-UKS iter  54:  3043.96433971569786    8.86687e+01   1.01121e-01 DIIS
   @DF-UKS iter  55:  2442.71905224809598   -6.01245e+02   1.00309e-01 DIIS
   @DF-UKS iter  56:  3145.68677699605178    7.02968e+02   1.00148e-01 DIIS
   @DF-UKS iter  57:  2158.28176888557209   -9.87405e+02   9.96854e-02 DIIS
   @DF-UKS iter  58:  3238.99143098237255    1.08071e+03   1.03905e-01 DIIS
   @DF-UKS iter  59:  3164.24913397974888   -7.47423e+01   1.01015e-01 DIIS
   @DF-UKS iter  60:  2461.43411187292804   -7.02815e+02   1.01658e-01 DIIS
   @DF-UKS iter  61:  3522.27579156804131    1.06084e+03   1.00147e-01 DIIS
   @DF-UKS iter  62:  1798.61638460814720   -1.72366e+03   9.85231e-02 DIIS
   @DF-UKS iter  63:  3583.75698805399588    1.78514e+03   1.01997e-01 DIIS
   @DF-UKS iter  64:  2330.26804621719202   -1.25349e+03   9.70997e-02 DIIS
   @DF-UKS iter  65:  2159.77733096870361   -1.70491e+02   1.03575e-01 DIIS
   @DF-UKS iter  66:  4330.51430139208969    2.17074e+03   1.03696e-01 DIIS
   @DF-UKS iter  67:  1853.41380462163943   -2.47710e+03   9.73630e-02 DIIS
   @DF-UKS iter  68:  2845.19849890156183    9.91785e+02   1.03534e-01 DIIS
   @DF-UKS iter  69:  3546.08085632021539    7.00882e+02   1.04238e-01 DIIS
   @DF-UKS iter  70:  2626.55929976089101   -9.19522e+02   9.91672e-02 DIIS
   @DF-UKS iter  71:  2387.51292909704352   -2.39046e+02   1.03568e-01 DIIS
   @DF-UKS iter  72:  3975.66530646901083    1.58815e+03   1.06798e-01 DIIS
   @DF-UKS iter  73:  2858.99304136526189   -1.11667e+03   9.87158e-02 DIIS
   @DF-UKS iter  74:  1797.94228377156833   -1.06105e+03   9.91573e-02 DIIS
   @DF-UKS iter  75:  3542.03363275311858    1.74409e+03   1.03054e-01 DIIS
   @DF-UKS iter  76:  2424.58325170139142   -1.11745e+03   7.38189e-02 DIIS
   @DF-UKS iter  77:  2493.86462342701998    6.92814e+01   1.04489e-01 DIIS
   @DF-UKS iter  78:  4000.04635077364946    1.50618e+03   1.06212e-01 DIIS
   @DF-UKS iter  79:  2664.30222485849663   -1.33574e+03   9.94140e-02 DIIS
   @DF-UKS iter  80:  2301.27535403711954   -3.63027e+02   1.03106e-01 DIIS
   @DF-UKS iter  81:  3949.20639937755186    1.64793e+03   1.04636e-01 DIIS
   @DF-UKS iter  82:  2366.97378757565457   -1.58223e+03   9.77542e-02 DIIS
   @DF-UKS iter  83:  2359.33856442794786   -7.63522e+00   1.02542e-01 DIIS
   @DF-UKS iter  84:  3774.10531279609131    1.41477e+03   1.04332e-01 DIIS
   @DF-UKS iter  85:  2628.32677565996710   -1.14578e+03   9.75647e-02 DIIS
   @DF-UKS iter  86:  1977.00446530566842   -6.51322e+02   1.02524e-01 DIIS
   @DF-UKS iter  87:  4119.10429941458278    2.14210e+03   1.03456e-01 DIIS
   @DF-UKS iter  88:  2148.26491454793722   -1.97084e+03   9.84567e-02 DIIS
   @DF-UKS iter  89:  2738.09591017205821    5.89831e+02   1.03934e-01 DIIS
   @DF-UKS iter  90:  3794.20147039548465    1.05611e+03   1.05400e-01 DIIS
   @DF-UKS iter  91:  2678.51027435877040   -1.11569e+03   9.87689e-02 DIIS
   @DF-UKS iter  92:  2074.53318429941282   -6.03977e+02   1.02136e-01 DIIS
   @DF-UKS iter  93:  4111.73471567122033    2.03720e+03   1.03546e-01 DIIS
   @DF-UKS iter  94:  2021.99741536097281   -2.08974e+03   9.82095e-02 DIIS
   @DF-UKS iter  95:  2966.35002214598353    9.44353e+02   1.05654e-01 DIIS
   @DF-UKS iter  96:  3952.56746664998354    9.86217e+02   1.06769e-01 DIIS
   @DF-UKS iter  97:  2843.01076393802214   -1.10956e+03   1.00438e-01 DIIS
   @DF-UKS iter  98:  2779.73066775409097   -6.32801e+01   1.01383e-01 DIIS
   @DF-UKS iter  99:  2874.50905064153631    9.47784e+01   1.00053e-01 DIIS
   @DF-UKS iter 100:  2740.59708546772890   -1.33912e+02   9.94993e-02 DIIS

  ==> Post-Iterations <==

   @Spin Contamination Metric:   3.983077677E-04
   @S^2 Expected:                7.500000000E-01
   @S^2 Observed:                7.503983078E-01
   @S   Expected:                5.000000000E-01
   @S   Observed:                5.000000000E-01

  Failed to converge.
Iterations did not converge.
Traceback (most recent call last):
  File "/usr/local/Dist/psi4conda/bin/psi4", line 248, in <module>
    exec(content)
  File "<string>", line 222, in <module>
  File "/usr/local/Dist/psi4conda/lib//python2.7/site-packages/psi4/driver/driver.py", line 1050, in optimize
    G, wfn = gradient(lowername, return_wfn=True, molecule=moleculeclone, **kwargs)
  File "/usr/local/Dist/psi4conda/lib//python2.7/site-packages/psi4/driver/driver.py", line 606, in gradient
    wfn = procedures['gradient'][lowername](lowername, molecule=molecule, **kwargs)
  File "/usr/local/Dist/psi4conda/lib//python2.7/site-packages/psi4/driver/procrouting/proc.py", line 2876, in run_dft_gradient
    wfn = run_scf_gradient(name, **kwargs)
  File "/usr/local/Dist/psi4conda/lib//python2.7/site-packages/psi4/driver/procrouting/proc.py", line 1958, in run_scf_gradient
    ref_wfn = run_scf(name, **kwargs)
  File "/usr/local/Dist/psi4conda/lib//python2.7/site-packages/psi4/driver/procrouting/proc.py", line 1942, in run_scf
    scf_wfn = scf_helper(name, **kwargs)
  File "/usr/local/Dist/psi4conda/lib//python2.7/site-packages/psi4/driver/procrouting/proc.py", line 1330, in scf_helper
    e_scf = scf_wfn.compute_energy()

RuntimeError: 
Fatal Error: Iterations did not converge.
Error occurred in file: /scratch/psilocaluser/conda-builds/psi4_1495009270718/work/psi4/src/psi4/libparallel/process.cc on line: 194
The most recent 5 function calls were:

psi::PsiException::PsiException(std::__cxx11::basic_string<char, std::char_traits<char>, std::allocator<char> >, char const*, int)
psi::die_if_not_converged()
psi::scf::HF::finalize_E()
psi::scf::HF::compute_energy()


*** Psi4 encountered an error. Buy a developer more coffee!
*** Resources and help at github.com/psi4/psi4.
