
    -----------------------------------------------------------------------
          Psi4: An Open-Source Ab Initio Electronic Structure Package
                               Psi4 1.1 release

                         Git: Rev {HEAD} add49b9 


    R. M. Parrish, L. A. Burns, D. G. A. Smith, A. C. Simmonett,
    A. E. DePrince III, E. G. Hohenstein, U. Bozkaya, A. Yu. Sokolov,
    R. Di Remigio, R. M. Richard, J. F. Gonthier, A. M. James,
    H. R. McAlexander, A. Kumar, M. Saitow, X. Wang, B. P. Pritchard,
    P. Verma, H. F. Schaefer III, K. Patkowski, R. A. King, E. F. Valeev,
    F. A. Evangelista, J. M. Turney, T. D. Crawford, and C. D. Sherrill,
    J. Chem. Theory Comput. in press (2017).
    (doi: 10.1021/acs.jctc.7b00174)

    -----------------------------------------------------------------------


    Psi4 started on: Saturday, 19 December 2020 05:24AM

    Process ID: 139397
    PSIDATADIR: /usr/local/Dist/psi4conda/share/psi4
    Memory:     500.0 MiB
    Threads:    10
    
  ==> Input File <==

--------------------------------------------------------------------------
molecule{
C    0.00000000  0.00000000  0.00000000
C    1.93309346  21.0171339 -6.30955738
C    2.82948724  21.4085566 -5.33626156
C    3.32009733  20.4605234 -4.37482684
C    3.45702410  20.7851479 -2.96943738
C    3.11116243  22.0765885 -2.44381700
C    2.42696939  22.1855516 -1.25043256
C    2.05063011  21.0090007 -0.51703566
C    0.74988531  20.8694217  0.10557470
C   -0.24992570  21.8983107  0.03101755
C   -1.57042607  21.5741023 -0.20392569
C   -1.96346059  20.2032255 -0.37734669
C   -2.90459290  19.7924215 -1.39937245
C   -3.50733185  20.7286835 -2.30707073
C   -3.63767343  20.4198553 -3.64564329
C   -3.17295729  19.1576531 -4.15019375
C   -2.45458723  19.0431354 -5.40320627
C   -2.15916390  20.1841637 -6.22456455
C   -0.92021386  20.3169139 -6.81739714
C    0.09139001  19.3158187 -6.62153600
C    1.47790905  19.6560759 -6.37475127
C    2.31074698  18.6736627 -5.75826777
C    3.24687184  19.0825351 -4.74171780
C    3.76739093  18.0792613 -3.85564462
C    3.90223543  18.3983209 -2.47441531
C    3.51128091  19.7080885 -2.03354610
C    2.79664431  19.8218554 -0.78722957
C    2.51447037  18.6192225 -0.05456771
C    1.23603449  18.4819950  0.55728861
C    0.29008207  19.5528792  0.41232833
C   -1.08906393  19.2142473  0.16683970
C   -1.44125758  17.8246003  0.08043090
C   -2.36626845  17.4208626 -0.92401854
C   -2.90284628  18.4225685 -1.80228340
C   -3.03923805  18.0999955 -3.20026423
C   -2.63158419  16.7943830 -3.63830512
C   -1.92547856  16.6818630 -4.86974757
C   -1.65457039  17.8794905 -5.61472100
C   -0.36066295  18.0180230 -6.23400900
C    0.58683673  16.9509635 -6.07172168
C    1.94951341  17.2854219 -5.82902637
C    2.81332214  16.2905531 -5.25731395
C    3.74451315  16.6973184 -4.24620001
C    4.27898816  15.7073770 -3.36541401
C    4.41558129  16.0298683 -1.96965480
C    4.01064270  17.3259890 -1.52516647
C    3.29985447  17.4391496 -0.28542719
C    3.02282268  16.2515770  0.45928826
C    1.73074151  16.1127490  1.07731611
C    0.78120192  17.1686947  0.91951767
C   -0.59058734  16.8318427  0.67511015
C   -0.95653308  15.4528396  0.59826764
C   -1.89146864  15.0449166 -0.41671587
C   -2.41328463  16.0364449 -1.30331448
C   -2.54921675  15.7155075 -2.69385579
C   -2.15832798  14.4160143 -3.14108648
C   -1.44482768  14.3022377 -4.38557922
C   -1.15798741  15.4939046 -5.11985156
C    0.12918279  15.6317332 -5.73559804
C    1.07711926  14.5723857 -5.59147628
C    2.45416793  14.9104283 -5.34604380
C    3.30728177  13.9212455 -4.75720728
C    4.23675797  14.3272920 -3.74830923
C    4.76935236  13.3301617 -2.86072166
C    4.90570874  13.6512852 -1.47117692
C    4.50384353  14.9568651 -1.02423904
C    3.79455854  15.0697318  0.21307699
C    3.51314943  13.8727364  0.95751815
C    2.22660037  13.7342910  1.57243885
C    1.27281110  14.7986426  1.41876078
C   -0.09616424  14.4624796  1.17457753
C   -0.46033178  13.0744489  1.09284993
C   -1.39139244  12.6685037  0.08244179
C   -1.92130426  13.6663383 -0.80598105
C   -2.05738716  13.3459229 -2.19364993
C   -1.65925831  12.0394233 -2.64151120
C   -0.94884389  11.9260623 -3.88050944
C   -0.66462320  13.1239567 -4.62234258
C    0.62011635  13.2615552 -5.23647825
C    1.57323513  12.1962814 -5.08533312
C    2.94417201  12.5329701 -4.84067070
C    3.80274190  11.5444855 -4.26325983
C    4.73837879  11.9531325 -3.24877860
C    5.26289674  10.9607238 -2.36131711
C    5.39960387  11.2818750 -0.97181215
C    5.00616865  12.5828789 -0.52448115
C    4.29246944  12.6962321  0.72033514
C    4.00655274  11.5027289  1.45655012
C    2.71991349  11.3640305  2.07117138
C    1.77016935  12.4247298  1.92553779
C    0.39293091  12.0865820  1.67935241
C    0.03310678  10.7043821  1.59073978
C   -0.89834828  10.2988797  0.58055961
C   -1.43319398  11.2906727 -0.30124436
C   -1.57089522  10.9679281 -1.69724174
C   -1.16795827  9.66906359 -2.14308683
C   -0.45733613  9.55565576 -3.38191052
C    0.72263097  11.4205615 -4.72928599
C    0.21471588  10.2096003 -4.13989620
C    2.06563127  9.82633626 -4.58487027
C    3.43646922  10.1631498 -4.34002914
C    4.29483433  9.17031756 -3.75422659
C    5.22572502  9.57662199 -2.74678132
C    5.76319518  8.58414033 -1.86422963
C    5.90083196  8.90673686 -0.46854669
C    5.49407678  10.2062395 -0.02307383
C    4.78417164  10.3184448  1.21394044
C    4.50631631  9.12653254  1.95937703
C    3.21370503  8.98675546  2.57607576
C    2.26193721  10.0464329  2.41831887
C    0.89297288  9.71052885  2.17323500
C    0.52633721  8.32781124  2.09555711
C   -0.40969363  7.92154962  1.08090700
C   -0.93404416  8.91545812  0.19308205
C   -1.07211721  8.59362870 -1.19425535
C   -0.68162692  7.28967804 -1.64255907
C    0.03257076  7.17591062 -2.88658012
C    0.32132733  8.37141203 -3.62202358
C    1.60725533  8.50986483 -4.23390494
C    2.55758118  7.44809815 -4.08597969
C    3.93448313  7.78625055 -3.84098801
C    4.78635794  6.80079886 -3.25400937
C    5.72067336  7.20803757 -2.24593805
C    6.24161672  6.20972491 -1.35444247
C    6.37828933  6.52899030  0.02646516
C    5.98926776  7.83691490  0.47441604
C    5.27691520  7.94863538  1.71342162
C    4.98666862  6.74632170  2.44394525
C    3.70671281  6.60680087  3.05228627
C    2.75666051  7.67556123  2.91430773
C    1.38487596  7.33949341  2.66890029
C    1.02954503  5.95154169  2.57315584
C    0.10332856  5.55161194  1.56828421
C   -0.44098629  6.54782395  0.69136750
C   -0.58017720  6.22300194 -0.69714743
C   -0.16973140  4.91846293 -1.13972476
C    0.53796393  4.80729692 -2.36884358
C    0.81225491  6.00135411 -3.11972254
C    2.10122431  6.14157601 -3.72954762
C    3.05286261  5.08087177 -3.55814048
C    4.41655090  5.41479983 -3.32028037
C    5.27600140  4.41668719 -2.74825362
C    6.21671738  4.82565031 -1.73656481
C    6.78393550  3.84001641 -0.87311370
C    6.92510812  4.16558837  0.53150205
C    6.48574867  5.45153377  0.96985262
C    5.76817141  5.56325598  2.21479815
C    5.51315907  4.38461958  2.97929768
C    4.20846038  4.23967996  3.59231789
C    3.25721536  5.28807329  3.40358518
C    1.87887596  4.95038838  3.15471713
C    1.49545961  3.57519233  3.09971157
C    0.54327406  3.17374273  2.08704514
C    0.05647982  4.16915722  1.19145531
C   -0.08501006  3.83428581 -0.20168047
C    0.24807984  2.51578729 -0.65099549
C    0.98594196  2.40947509 -1.89756329
C    1.30552602  3.61733865 -2.60003403
C    2.60122475  3.76155790 -3.21422835
C    3.54704240  2.69784315 -3.11052743
C    4.93323591  3.03591961 -2.86461935
C    5.86620668  2.09201478 -2.31517741
C    6.76759707  2.48359199 -1.34651281
C    7.06158202  3.15409976  1.54264590
C    6.37417899  3.26081544  2.73413590
C    3.68859211  2.95928981  3.98552796
C    2.36937548  2.63505095  3.74295930
C    0.34147451  1.81467355  1.67911870
C    0.17036225  1.46303822  0.34965920
C    1.76309220  1.25450711 -2.26644047
C    3.00780956  1.39574430 -2.84577856
H    0.96694494 -0.52645454 -0.10515561
H   -0.55631637 -0.51295973  0.80252019
H   -0.56198100 -0.13691387 -0.93806047
H    1.45975807  21.7819994 -6.93278783
H    3.04496074  22.4741860 -5.21177507
H    3.25389801  22.9719211 -3.05658944
H    2.04398627  23.1645523 -0.94651788
H    0.04949635  22.9506225  0.00940855
H   -2.28560007  22.3773043 -0.40610782
H   -3.72844089  21.7473875 -1.97416021
H   -3.95902747  21.2012809 -4.34105074
H   -2.85798022  21.0254009 -6.26286659
H   -0.66711634  21.2601262 -7.31113580
H    5.76754550  1.02749943 -2.54892716
H    7.36258994  1.71994687 -0.83632771
H    7.59000317  2.22288688  1.31654394
H    6.37450511  2.41170129  3.42441083
H    4.36993315  2.17848772  4.33689220
H    2.03712320  1.60471442  3.90360513
H    0.42242566  1.00997614  2.41939886
H    1.43856881  0.25569591 -1.97428399
H    3.63357620  0.50709692 -2.97471597
H   -0.29562994  9.79540941 -4.88927263
}
set basis 6-31G(d)
memory 20 GB
set reference uhf
set opt_type ts
optimize ('pbe')
--------------------------------------------------------------------------

  Memory set to  18.626 GiB by Python driver.
gradient() will perform analytic gradient computation.

*** tstart() called on node21.cluster
*** at Sat Dec 19 05:24:58 2020

   => Loading Basis Set <=

    Name: 6-31G(D)
    Role: ORBITAL
    Keyword: BASIS
    atoms 1-171   entry C          line   102 file /usr/local/Dist/psi4conda/share/psi4/basis/6-31g_d_.gbs 
    atoms 172-194 entry H          line    35 file /usr/local/Dist/psi4conda/share/psi4/basis/6-31g_d_.gbs 

    There are an odd number of electrons - assuming doublet.
    Specify the multiplicity in the molecule input block.


         ---------------------------------------------------------
                                   SCF
            by Justin Turney, Rob Parrish, and Andy Simmonett
                              UKS Reference
                       10 Threads,  19073 MiB Core
         ---------------------------------------------------------

  ==> Geometry <==

    Molecular point group: c1
    Full point group: C1

    Geometry (in Angstrom), charge = 0, multiplicity = 2:

       Center              X                  Y                   Z               Mass       
    ------------   -----------------  -----------------  -----------------  -----------------
           C         -1.778773604745   -11.636480768908     1.450626862150    12.000000000000
           C          0.154319855255     9.380653131092    -4.858930517850    12.000000000000
           C          1.050713635255     9.772075831092    -3.885634697850    12.000000000000
           C          1.541323725255     8.824042631092    -2.924199977850    12.000000000000
           C          1.678250495255     9.148667131092    -1.518810517850    12.000000000000
           C          1.332388825255    10.440107731092    -0.993190137850    12.000000000000
           C          0.648195785255    10.549070831092     0.200194302150    12.000000000000
           C          0.271856505255     9.372519931092     0.933591202150    12.000000000000
           C         -1.028888294745     9.232940931092     1.556201562150    12.000000000000
           C         -2.028699304745    10.261829931092     1.481644412150    12.000000000000
           C         -3.349199674745     9.937621531092     1.246701172150    12.000000000000
           C         -3.742234194745     8.566744731092     1.073280172150    12.000000000000
           C         -4.683366504745     8.155940731092     0.051254412150    12.000000000000
           C         -5.286105454745     9.092202731092    -0.856443867850    12.000000000000
           C         -5.416447034745     8.783374531092    -2.195016427850    12.000000000000
           C         -4.951730894745     7.521172331092    -2.699566887850    12.000000000000
           C         -4.233360834745     7.406654631092    -3.952579407850    12.000000000000
           C         -3.937937504745     8.547682931092    -4.773937687850    12.000000000000
           C         -2.698987464745     8.680433131092    -5.366770277850    12.000000000000
           C         -1.687383594745     7.679337931092    -5.170909137850    12.000000000000
           C         -0.300864554745     8.019595131092    -4.924124407850    12.000000000000
           C          0.531973375255     7.037181931092    -4.307640907850    12.000000000000
           C          1.468098235255     7.446054331092    -3.291090937850    12.000000000000
           C          1.988617325255     6.442780531092    -2.405017757850    12.000000000000
           C          2.123461825255     6.761840131092    -1.023788447850    12.000000000000
           C          1.732507305255     8.071607731092    -0.582919237850    12.000000000000
           C          1.017870705255     8.185374631092     0.663397292150    12.000000000000
           C          0.735696765255     6.982741731092     1.396059152150    12.000000000000
           C         -0.542739114745     6.845514231092     2.007915472150    12.000000000000
           C         -1.488691534745     7.916398431092     1.862955192150    12.000000000000
           C         -2.867837534745     7.577766531092     1.617466562150    12.000000000000
           C         -3.220031184745     6.188119531092     1.531057762150    12.000000000000
           C         -4.145042054745     5.784381831092     0.526608322150    12.000000000000
           C         -4.681619884745     6.786087731092    -0.351656537850    12.000000000000
           C         -4.818011654745     6.463514731092    -1.749637367850    12.000000000000
           C         -4.410357794745     5.157902231092    -2.187678257850    12.000000000000
           C         -3.704252164745     5.045382231092    -3.419120707850    12.000000000000
           C         -3.433343994745     6.243009731092    -4.164094137850    12.000000000000
           C         -2.139436554745     6.381542231092    -4.783382137850    12.000000000000
           C         -1.191936874745     5.314482731092    -4.621094817850    12.000000000000
           C          0.170739805255     5.648941131092    -4.378399507850    12.000000000000
           C          1.034548535255     4.654072331092    -3.806687087850    12.000000000000
           C          1.965739545255     5.060837631092    -2.795573147850    12.000000000000
           C          2.500214555255     4.070896231092    -1.914787147850    12.000000000000
           C          2.636807685255     4.393387531092    -0.519027937850    12.000000000000
           C          2.231869095255     5.689508231092    -0.074539607850    12.000000000000
           C          1.521080865255     5.802668831092     1.165199672150    12.000000000000
           C          1.244049075255     4.615096231092     1.909915122150    12.000000000000
           C         -0.048032094745     4.476268231092     2.527942972150    12.000000000000
           C         -0.997571684745     5.532213931092     2.370144532150    12.000000000000
           C         -2.369360944745     5.195361931092     2.125737012150    12.000000000000
           C         -2.735306684745     3.816358831092     2.048894502150    12.000000000000
           C         -3.670242244745     3.408435831092     1.033910992150    12.000000000000
           C         -4.192058234745     4.399964131092     0.147312382150    12.000000000000
           C         -4.327990354745     4.079026731092    -1.243228927850    12.000000000000
           C         -3.937101584745     2.779533531092    -1.690459617850    12.000000000000
           C         -3.223601284745     2.665756931092    -2.934952357850    12.000000000000
           C         -2.936761014745     3.857423831092    -3.669224697850    12.000000000000
           C         -1.649590814745     3.995252431092    -4.284971177850    12.000000000000
           C         -0.701654344745     2.935904931092    -4.140849417850    12.000000000000
           C          0.675394325255     3.273947531092    -3.895416937850    12.000000000000
           C          1.528508165255     2.284764731092    -3.306580417850    12.000000000000
           C          2.457984365255     2.690811231092    -2.297682367850    12.000000000000
           C          2.990578755255     1.693680931092    -1.410094797850    12.000000000000
           C          3.126935135255     2.014804431092    -0.020550057850    12.000000000000
           C          2.725069925255     3.320384331092     0.426387822150    12.000000000000
           C          2.015784935255     3.433251031092     1.663703852150    12.000000000000
           C          1.734375825255     2.236255631092     2.408145012150    12.000000000000
           C          0.447826765255     2.097810231092     3.023065712150    12.000000000000
           C         -0.505962504745     3.162161831092     2.869387642150    12.000000000000
           C         -1.874937844745     2.825998831092     2.625204392150    12.000000000000
           C         -2.239105384745     1.437968131092     2.543476792150    12.000000000000
           C         -3.170166044745     1.032022931092     1.533068652150    12.000000000000
           C         -3.700077864745     2.029857531092     0.644645812150    12.000000000000
           C         -3.836160764745     1.709442131092    -0.743023067850    12.000000000000
           C         -3.438031914745     0.402942531092    -1.190884337850    12.000000000000
           C         -2.727617494745     0.289581531092    -2.429882577850    12.000000000000
           C         -2.443396804745     1.487475931092    -3.171715717850    12.000000000000
           C         -1.158657254745     1.625074431092    -3.785851387850    12.000000000000
           C         -0.205538474745     0.559800631092    -3.634706257850    12.000000000000
           C          1.165398405255     0.896489331092    -3.390043837850    12.000000000000
           C          2.023968295255    -0.091995268908    -2.812632967850    12.000000000000
           C          2.959605185255     0.316651731092    -1.798151737850    12.000000000000
           C          3.484123135255    -0.675756968908    -0.910690247850    12.000000000000
           C          3.620830265255    -0.354605768908     0.478814712150    12.000000000000
           C          3.227395045255     0.946398131092     0.926145712150    12.000000000000
           C          2.513695835255     1.059751331092     2.170962002150    12.000000000000
           C          2.227779135255    -0.133751868908     2.907176982150    12.000000000000
           C          0.941139885255    -0.272450268908     3.521798242150    12.000000000000
           C         -0.008604254745     0.788249031092     3.376164652150    12.000000000000
           C         -1.385842694745     0.450101231092     3.129979272150    12.000000000000
           C         -1.745666824745    -0.932098668908     3.041366642150    12.000000000000
           C         -2.677121884745    -1.337601068908     2.031186472150    12.000000000000
           C         -3.211967584745    -0.345808068908     1.149382502150    12.000000000000
           C         -3.349668824745    -0.668552668908    -0.246614877850    12.000000000000
           C         -2.946731874745    -1.967417178908    -0.692459967850    12.000000000000
           C         -2.236109734745    -2.080825008908    -1.931283657850    12.000000000000
           C         -1.056142634745    -0.215919268908    -3.278659127850    12.000000000000
           C         -1.564057724745    -1.426880468908    -2.689269337850    12.000000000000
           C          0.286857665255    -1.810144508908    -3.134243407850    12.000000000000
           C          1.657695615255    -1.473330968908    -2.889402277850    12.000000000000
           C          2.516060725255    -2.466163208908    -2.303599727850    12.000000000000
           C          3.446951415255    -2.059858778908    -1.296154457850    12.000000000000
           C          3.984421575255    -3.052340438908    -0.413602767850    12.000000000000
           C          4.122058355255    -2.729743908908     0.982080172150    12.000000000000
           C          3.715303175255    -1.430241268908     1.427553032150    12.000000000000
           C          3.005398035255    -1.318035968908     2.664567302150    12.000000000000
           C          2.727542705255    -2.509948228908     3.410003892150    12.000000000000
           C          1.434931425255    -2.649725308908     4.026702622150    12.000000000000
           C          0.483163605255    -1.590047868908     3.868945732150    12.000000000000
           C         -0.885800724745    -1.925951918908     3.623861862150    12.000000000000
           C         -1.252436394745    -3.308669528908     3.546183972150    12.000000000000
           C         -2.188467234745    -3.714931148908     2.531533862150    12.000000000000
           C         -2.712817764745    -2.721022648908     1.643708912150    12.000000000000
           C         -2.850890814745    -3.042852068908     0.256371512150    12.000000000000
           C         -2.460400524745    -4.346802728908    -0.191932207850    12.000000000000
           C         -1.746202844745    -4.460570148908    -1.435953257850    12.000000000000
           C         -1.457446274745    -3.265068738908    -2.171396717850    12.000000000000
           C         -0.171518274745    -3.126615938908    -2.783278077850    12.000000000000
           C          0.778807575255    -4.188382618908    -2.635352827850    12.000000000000
           C          2.155709525255    -3.850230218908    -2.390361147850    12.000000000000
           C          3.007584335255    -4.835681908908    -1.803382507850    12.000000000000
           C          3.941899755255    -4.428443198908    -0.795311187850    12.000000000000
           C          4.462843115255    -5.426755858908     0.096184392150    12.000000000000
           C          4.599515725255    -5.107490468908     1.477092022150    12.000000000000
           C          4.210494155255    -3.799565868908     1.925042902150    12.000000000000
           C          3.498141595255    -3.687845388908     3.164048482150    12.000000000000
           C          3.207895015255    -4.890159068908     3.894572112150    12.000000000000
           C          1.927939205255    -5.029679898908     4.502913132150    12.000000000000
           C          0.977886905255    -3.960919538908     4.364934592150    12.000000000000
           C         -0.393897644745    -4.296987358908     4.119527152150    12.000000000000
           C         -0.749228574745    -5.684939078908     4.023782702150    12.000000000000
           C         -1.675445044745    -6.084868828908     3.018911072150    12.000000000000
           C         -2.219759894745    -5.088656818908     2.141994362150    12.000000000000
           C         -2.358950804745    -5.413478828908     0.753479432150    12.000000000000
           C         -1.948505004745    -6.718017838908     0.310902102150    12.000000000000
           C         -1.240809674745    -6.829183848908    -0.918216717850    12.000000000000
           C         -0.966518694745    -5.635126658908    -1.669095677850    12.000000000000
           C          0.322450705255    -5.494904758908    -2.278920757850    12.000000000000
           C          1.274089005255    -6.555608998908    -2.107513617850    12.000000000000
           C          2.637777295255    -6.221680938908    -1.869653507850    12.000000000000
           C          3.497227795255    -7.219793578908    -1.297626757850    12.000000000000
           C          4.437943775255    -6.810830458908    -0.285937947850    12.000000000000
           C          5.005161895255    -7.796464358908     0.577513162150    12.000000000000
           C          5.146334515255    -7.470892398908     1.982128912150    12.000000000000
           C          4.706975065255    -6.184946998908     2.420479482150    12.000000000000
           C          3.989397805255    -6.073224788908     3.665425012150    12.000000000000
           C          3.734385465255    -7.251861188908     4.429924542150    12.000000000000
           C          2.429686775255    -7.396800808908     5.042944752150    12.000000000000
           C          1.478441755255    -6.348407478908     4.854212042150    12.000000000000
           C          0.100102355255    -6.686092388908     4.605343992150    12.000000000000
           C         -0.283313994745    -8.061288438908     4.550338432150    12.000000000000
           C         -1.235499544745    -8.462738038908     3.537672002150    12.000000000000
           C         -1.722293784745    -7.467323548908     2.642082172150    12.000000000000
           C         -1.863783664745    -7.802194958908     1.248946392150    12.000000000000
           C         -1.530693764745    -9.120693478908     0.799631372150    12.000000000000
           C         -0.792831644745    -9.227005678908    -0.446936427850    12.000000000000
           C         -0.473247584745    -8.019142118908    -1.149407167850    12.000000000000
           C          0.822451145255    -7.874922868908    -1.763601487850    12.000000000000
           C          1.768268795255    -8.938637618908    -1.659900567850    12.000000000000
           C          3.154462305255    -8.600561158908    -1.413992487850    12.000000000000
           C          4.087433075255    -9.544465988908    -0.864550547850    12.000000000000
           C          4.988823465255    -9.152888778908     0.104114052150    12.000000000000
           C          5.282808415255    -8.482381008908     2.993272762150    12.000000000000
           C          4.595405385255    -8.375665328908     4.184762762150    12.000000000000
           C          1.909818505255    -8.677190958908     5.436154822150    12.000000000000
           C          0.590601875255    -9.001429818908     5.193586162150    12.000000000000
           C         -1.437299094745    -9.821807218908     3.129745562150    12.000000000000
           C         -1.608411354745   -10.173442548908     1.800286062150    12.000000000000
           C         -0.015681404745   -10.381973658908    -0.815813607850    12.000000000000
           C          1.229035955255   -10.240736468908    -1.395151697850    12.000000000000
           H         -0.811828664745   -12.162935308908     1.345471252150     1.007825032070
           H         -2.335089974745   -12.149440498908     2.253147052150     1.007825032070
           H         -2.340754604745   -11.773394638908     0.512566392150     1.007825032070
           H         -0.319015534745    10.145518631092    -5.482160967850     1.007825032070
           H          1.266187135255    10.837705231092    -3.761148207850     1.007825032070
           H          1.475124405255    11.335440331092    -1.605962577850     1.007825032070
           H          0.265212665255    11.528071531092     0.504108982150     1.007825032070
           H         -1.729277254745    11.314141731092     1.460035412150     1.007825032070
           H         -4.064373674745    10.740823531092     1.044519042150     1.007825032070
           H         -5.507214494745    10.110906731092    -0.523533347850     1.007825032070
           H         -5.737801074745     9.564800131092    -2.890423877850     1.007825032070
           H         -4.636753824745     9.388920131092    -4.812239727850     1.007825032070
           H         -2.445889944745     9.623645431092    -5.860508937850     1.007825032070
           H          3.988771895255   -10.608981338908    -1.098300297850     1.007825032070
           H          5.583816335255    -9.916533898908     0.614299152150     1.007825032070
           H          5.811229565255    -9.413593888908     2.767170802150     1.007825032070
           H          4.595731505255    -9.224779478908     4.875037692150     1.007825032070
           H          2.591159545255    -9.457993048908     5.787519062150     1.007825032070
           H          0.258349595255   -10.031766348908     5.354231992150     1.007825032070
           H         -1.356347944745   -10.626504628908     3.870025722150     1.007825032070
           H         -0.340204794745   -11.380784858908    -0.523657127850     1.007825032070
           H          1.854802595255   -11.129383848908    -1.524089107850     1.007825032070
           H         -2.074403544745    -1.841071358908    -3.438645767850     1.007825032070

  Running in c1 symmetry.

  Rotational constants: A =      0.00067  B =      0.00018  C =      0.00018 [cm^-1]
  Rotational constants: A =     20.17533  B =      5.52785  C =      5.51033 [MHz]
  Nuclear repulsion = 42426.170614964663400

  Charge       = 0
  Multiplicity = 2
  Electrons    = 1049
  Nalpha       = 525
  Nbeta        = 524

  ==> Algorithm <==

  SCF Algorithm Type is DF.
  DIIS enabled.
  MOM disabled.
  Fractional occupation disabled.
  Guess Type is GWH.
  Energy threshold   = 1.00e-08
  Density threshold  = 1.00e-08
  Integral threshold = 0.00e+00

  ==> Primary Basis <==

  Basis Set: 6-31G(D)
    Blend: 6-31G(D)
    Number of shells: 1072
    Number of basis function: 2611
    Number of Cartesian functions: 2611
    Spherical Harmonics?: false
    Max angular momentum: 2

  ==> DFT Potential <==

   => PBE Composite Functional <= 

    PBE GGA Exchange-Correlation Functional

    J.P. Perdew et. al., Phys. Rev. Lett., 77(18), 3865-3868, 1996

    Points   =           5000
    Deriv    =              1
    GGA      =           TRUE
    Meta     =          FALSE

    X_LRC        =          FALSE
    X_Hybrid     =          FALSE
    X_Alpha      =   0.000000E+00
    X_Omega      =   0.000000E+00
    C_LRC        =          FALSE
    C_Hybrid     =          FALSE
    C_Alpha      =   0.000000E+00
    C_Omega      =   0.000000E+00

   => Exchange Functionals <=

    1.0000   PBE_X

   => Correlation Functionals <=

    1.0000   PBE_C

   => Molecular Quadrature <=

    Radial Scheme    =       TREUTLER
    Pruning Scheme   =           FLAT
    Nuclear Scheme   =       TREUTLER

    BS radius alpha  =              1
    Pruning alpha    =              1
    Radial Points    =             75
    Spherical Points =            302
    Total Points     =        4307647
    Total Blocks     =           3101
    Max Points       =           5000
    Max Functions    =            964

   => Loading Basis Set <=

    Name: (6-31G(D) AUX)
    Role: JKFIT
    Keyword: DF_BASIS_SCF
    atoms 1-171   entry C          line   120 file /usr/local/Dist/psi4conda/share/psi4/basis/cc-pvdz-jkfit.gbs 
    atoms 172-194 entry H          line    50 file /usr/local/Dist/psi4conda/share/psi4/basis/cc-pvdz-jkfit.gbs 

  ==> Pre-Iterations <==

   -------------------------------------------------------
    Irrep   Nso     Nmo     Nalpha   Nbeta   Ndocc  Nsocc
   -------------------------------------------------------
     A       2611    2611       0       0       0       0
   -------------------------------------------------------
    Total    2611    2611     525     524     524       1
   -------------------------------------------------------

  ==> Integral Setup <==

  ==> DFJK: Density-Fitted J/K Matrices <==

    J tasked:                  Yes
    K tasked:                   No
    wK tasked:                  No
    OpenMP threads:             10
    Integrals threads:          10
    Memory (MB):             14305
    Algorithm:                Disk
    Integral Cache:           NONE
    Schwarz Cutoff:          1E-12
    Fitting Condition:       1E-12

   => Auxiliary Basis Set <=

  Basis Set: (6-31G(D) AUX)
    Blend: CC-PVDZ-JKFIT
    Number of shells: 4311
    Number of basis function: 14426
    Number of Cartesian functions: 14426
    Spherical Harmonics?: false
    Max angular momentum: 3

  Minimum eigenvalue in the overlap matrix is 7.4099725722E-05.
  Using Symmetric Orthogonalization.

  SCF Guess: Generalized Wolfsberg-Helmholtz.

  ==> Iterations <==

                           Total Energy        Delta E     RMS |[F,P]|

   @DF-UKS iter   1: -2655.08374524749524   -2.65508e+03   1.10082e-01 
   @DF-UKS iter   2: 11962.80747819547105    1.46179e+04   1.02579e-01 DIIS
   @DF-UKS iter   3:  9579.67454725573771   -2.38313e+03   1.26810e-01 DIIS
   @DF-UKS iter   4: -2208.71816214764840   -1.17884e+04   7.40566e-02 DIIS
   @DF-UKS iter   5: -1496.11824246324250    7.12600e+02   6.75496e-02 DIIS
   @DF-UKS iter   6: 13650.25379549251375    1.51464e+04   1.18879e-01 DIIS
   @DF-UKS iter   7: -3059.01050350321748   -1.67093e+04   6.65855e-02 DIIS
   @DF-UKS iter   8: 10253.72158505179686    1.33127e+04   1.22702e-01 DIIS
   @DF-UKS iter   9:  3028.71290338419203   -7.22501e+03   9.48296e-02 DIIS
   @DF-UKS iter  10: -4746.90758311790705   -7.77562e+03   4.76877e-02 DIIS
   @DF-UKS iter  11: -1484.31017785482254    3.26260e+03   7.21335e-02 DIIS
   @DF-UKS iter  12:   232.04091559963126    1.71635e+03   9.72798e-02 DIIS
   @DF-UKS iter  13: -3528.93183305596176   -3.76097e+03   6.64153e-02 DIIS
   @DF-UKS iter  14:  3314.55499950376543    6.84349e+03   9.62543e-02 DIIS
   @DF-UKS iter  15: -5184.34557895107719   -8.49890e+03   3.87008e-02 DIIS
   @DF-UKS iter  16: 12328.12734869129781    1.75125e+04   1.24829e-01 DIIS
   @DF-UKS iter  17:  1121.76584861319134   -1.12064e+04   9.03057e-02 DIIS
   @DF-UKS iter  18:   -25.08090709411044   -1.14685e+03   8.68494e-02 DIIS
   @DF-UKS iter  19: -4256.55201835320622   -4.23147e+03   5.26493e-02 DIIS
   @DF-UKS iter  20: -4303.19013189707766   -4.66381e+01   5.02788e-02 DIIS
   @DF-UKS iter  21: -4382.82673529395106   -7.96366e+01   5.44510e-02 DIIS
   @DF-UKS iter  22: -5585.58992282899271   -1.20276e+03   3.26256e-02 DIIS
   @DF-UKS iter  23: -4588.93857851255598    9.96651e+02   5.65711e-02 DIIS
   @DF-UKS iter  24: -4760.23955972721160   -1.71301e+02   5.11258e-02 DIIS
   @DF-UKS iter  25: -2886.27129609716940    1.87397e+03   5.94562e-02 DIIS
   @DF-UKS iter  26: -5491.62687851014198   -2.60536e+03   3.71275e-02 DIIS
   @DF-UKS iter  27: -4259.38456563638465    1.23224e+03   5.55988e-02 DIIS
   @DF-UKS iter  28: -2305.61039724748844    1.95377e+03   6.93097e-02 DIIS
   @DF-UKS iter  29: -3019.92595601558423   -7.14316e+02   7.69886e-02 DIIS
   @DF-UKS iter  30: -3134.10123459967872   -1.14175e+02   6.57150e-02 DIIS
   @DF-UKS iter  31: -4651.69617718364316   -1.51759e+03   5.46978e-02 DIIS
   @DF-UKS iter  32: -4151.95442233867652    4.99742e+02   5.27955e-02 DIIS
   @DF-UKS iter  33: -4495.76079750281497   -3.43806e+02   5.33154e-02 DIIS
   @DF-UKS iter  34: -2949.53952069522347    1.54622e+03   6.57784e-02 DIIS
   @DF-UKS iter  35: -4301.14517055254692   -1.35161e+03   5.92504e-02 DIIS
   @DF-UKS iter  36: -3445.45391877053044    8.55691e+02   6.41512e-02 DIIS
   @DF-UKS iter  37: -3717.80298356425192   -2.72349e+02   6.59200e-02 DIIS
   @DF-UKS iter  38: -3361.32047365796461    3.56483e+02   6.39046e-02 DIIS
   @DF-UKS iter  39: -3710.53058491466800   -3.49210e+02   6.64926e-02 DIIS
   @DF-UKS iter  40: -3327.55139838116156    3.82979e+02   6.70840e-02 DIIS
   @DF-UKS iter  41: -3153.83688756080664    1.73715e+02   7.02608e-02 DIIS
   @DF-UKS iter  42: -3958.34092489218892   -8.04504e+02   5.98631e-02 DIIS
   @DF-UKS iter  43: -3594.30666213334916    3.64034e+02   6.60887e-02 DIIS
   @DF-UKS iter  44: -3770.04450652094965   -1.75738e+02   6.19210e-02 DIIS
   @DF-UKS iter  45: -2722.61807268141274    1.04743e+03   7.57176e-02 DIIS
   @DF-UKS iter  46: -3050.02537657663197   -3.27407e+02   6.91407e-02 DIIS
   @DF-UKS iter  47: -3159.16222178538010   -1.09137e+02   7.06300e-02 DIIS
   @DF-UKS iter  48: -3532.57324321640772   -3.73411e+02   6.36654e-02 DIIS
   @DF-UKS iter  49: -3559.41882461961359   -2.68456e+01   6.57162e-02 DIIS
   @DF-UKS iter  50: -3489.99351791461231    6.94253e+01   6.44358e-02 DIIS
   @DF-UKS iter  51: -2715.80102962876845    7.74192e+02   7.65411e-02 DIIS
   @DF-UKS iter  52: -2539.04631445032282    1.76755e+02   7.32636e-02 DIIS
   @DF-UKS iter  53: -3319.20237970622111   -7.80156e+02   6.79465e-02 DIIS
   @DF-UKS iter  54: -3693.07627911285090   -3.73874e+02   6.49167e-02 DIIS
   @DF-UKS iter  55: -3045.70661134021793    6.47370e+02   7.15032e-02 DIIS
   @DF-UKS iter  56: -3156.40687172726757   -1.10700e+02   7.10787e-02 DIIS
   @DF-UKS iter  57: -3005.27331133050029    1.51134e+02   6.99738e-02 DIIS
   @DF-UKS iter  58: -3569.56610227083729   -5.64293e+02   6.48125e-02 DIIS
   @DF-UKS iter  59: -3381.50680339169048    1.88059e+02   6.80779e-02 DIIS
   @DF-UKS iter  60: -3167.64221791629097    2.13865e+02   6.87873e-02 DIIS
   @DF-UKS iter  61: -2901.91682955386932    2.65725e+02   7.43583e-02 DIIS
   @DF-UKS iter  62: -2718.11129237227578    1.83806e+02   7.37087e-02 DIIS
   @DF-UKS iter  63: -3265.39888346538646   -5.47288e+02   6.82314e-02 DIIS
   @DF-UKS iter  64: -3626.98546700443694   -3.61587e+02   6.61798e-02 DIIS
   @DF-UKS iter  65: -3198.40765510901838    4.28578e+02   7.03674e-02 DIIS
   @DF-UKS iter  66: -3251.37934821125236   -5.29717e+01   6.83243e-02 DIIS
   @DF-UKS iter  67: -3344.71375013202487   -9.33344e+01   6.86217e-02 DIIS
   @DF-UKS iter  68: -3266.21369446280733    7.85001e+01   7.05268e-02 DIIS
   @DF-UKS iter  69: -2940.63942442169355    3.25574e+02   7.06156e-02 DIIS
   @DF-UKS iter  70: -3426.13427578117989   -4.85495e+02   6.76696e-02 DIIS
   @DF-UKS iter  71: -3176.15174067765474    2.49983e+02   7.01862e-02 DIIS
   @DF-UKS iter  72: -3221.35652956221747   -4.52048e+01   6.75338e-02 DIIS
   @DF-UKS iter  73: -3470.51858109736349   -2.49162e+02   6.66418e-02 DIIS
   @DF-UKS iter  74: -3210.82911092243739    2.59689e+02   6.80589e-02 DIIS
   @DF-UKS iter  75: -2975.43424428033904    2.35395e+02   7.26346e-02 DIIS
   @DF-UKS iter  76: -2794.83872605329816    1.80596e+02   7.29780e-02 DIIS
   @DF-UKS iter  77: -3104.40729396994720   -3.09569e+02   7.07240e-02 DIIS
   @DF-UKS iter  78: -3319.47786760214512   -2.15071e+02   6.82054e-02 DIIS
   @DF-UKS iter  79: -3257.25448620555835    6.22234e+01   6.99414e-02 DIIS
   @DF-UKS iter  80: -3226.50156892134692    3.07529e+01   6.78299e-02 DIIS
   @DF-UKS iter  81: -3427.08165112468123   -2.00580e+02   6.79903e-02 DIIS
   @DF-UKS iter  82: -3155.09668462329137    2.71985e+02   6.87435e-02 DIIS
   @DF-UKS iter  83: -3083.87346379062365    7.12232e+01   7.20519e-02 DIIS
   @DF-UKS iter  84: -2951.17634635340073    1.32697e+02   7.15221e-02 DIIS
   @DF-UKS iter  85: -3212.84678455809626   -2.61670e+02   6.88389e-02 DIIS
   @DF-UKS iter  86: -3467.99619359248027   -2.55149e+02   6.71212e-02 DIIS
   @DF-UKS iter  87: -3098.07920902987826    3.69917e+02   7.11496e-02 DIIS
   @DF-UKS iter  88: -3031.90152887505246    6.61777e+01   7.11566e-02 DIIS
   @DF-UKS iter  89: -3258.49918575808260   -2.26598e+02   6.83003e-02 DIIS
   @DF-UKS iter  90: -3545.92614822993346   -2.87427e+02   6.54754e-02 DIIS
   @DF-UKS iter  91: -3234.39225543826615    3.11534e+02   6.97792e-02 DIIS
   @DF-UKS iter  92: -3056.20856756247667    1.78184e+02   6.91096e-02 DIIS
   @DF-UKS iter  93: -3150.68083666564780   -9.44723e+01   7.21664e-02 DIIS
   @DF-UKS iter  94: -2790.43607792692637    3.60245e+02   7.31535e-02 DIIS
   @DF-UKS iter  95: -3078.45039180565800   -2.88014e+02   7.08898e-02 DIIS
   @DF-UKS iter  96: -3382.97311609326425   -3.04523e+02   6.72750e-02 DIIS
   @DF-UKS iter  97: -3414.38763586043933   -3.14145e+01   6.78167e-02 DIIS
   @DF-UKS iter  98: -3391.50092059438612    2.28867e+01   6.71604e-02 DIIS
   @DF-UKS iter  99: -3103.48348972180975    2.88017e+02   7.25180e-02 DIIS
   @DF-UKS iter 100: -2882.51314411107887    2.20970e+02   7.10602e-02 DIIS

  ==> Post-Iterations <==

   @Spin Contamination Metric:   2.062766273E-04
   @S^2 Expected:                7.500000000E-01
   @S^2 Observed:                7.502062766E-01
   @S   Expected:                5.000000000E-01
   @S   Observed:                5.000000000E-01

  Failed to converge.
Iterations did not converge.
Traceback (most recent call last):
  File "/usr/local/Dist/psi4conda/bin/psi4", line 248, in <module>
    exec(content)
  File "<string>", line 222, in <module>
  File "/usr/local/Dist/psi4conda/lib//python2.7/site-packages/psi4/driver/driver.py", line 1050, in optimize
    G, wfn = gradient(lowername, return_wfn=True, molecule=moleculeclone, **kwargs)
  File "/usr/local/Dist/psi4conda/lib//python2.7/site-packages/psi4/driver/driver.py", line 606, in gradient
    wfn = procedures['gradient'][lowername](lowername, molecule=molecule, **kwargs)
  File "/usr/local/Dist/psi4conda/lib//python2.7/site-packages/psi4/driver/procrouting/proc.py", line 2876, in run_dft_gradient
    wfn = run_scf_gradient(name, **kwargs)
  File "/usr/local/Dist/psi4conda/lib//python2.7/site-packages/psi4/driver/procrouting/proc.py", line 1958, in run_scf_gradient
    ref_wfn = run_scf(name, **kwargs)
  File "/usr/local/Dist/psi4conda/lib//python2.7/site-packages/psi4/driver/procrouting/proc.py", line 1942, in run_scf
    scf_wfn = scf_helper(name, **kwargs)
  File "/usr/local/Dist/psi4conda/lib//python2.7/site-packages/psi4/driver/procrouting/proc.py", line 1330, in scf_helper
    e_scf = scf_wfn.compute_energy()

RuntimeError: 
Fatal Error: Iterations did not converge.
Error occurred in file: /scratch/psilocaluser/conda-builds/psi4_1495009270718/work/psi4/src/psi4/libparallel/process.cc on line: 194
The most recent 5 function calls were:

psi::PsiException::PsiException(std::__cxx11::basic_string<char, std::char_traits<char>, std::allocator<char> >, char const*, int)
psi::die_if_not_converged()
psi::scf::HF::finalize_E()
psi::scf::HF::compute_energy()


*** Psi4 encountered an error. Buy a developer more coffee!
*** Resources and help at github.com/psi4/psi4.
