
    -----------------------------------------------------------------------
          Psi4: An Open-Source Ab Initio Electronic Structure Package
                               Psi4 1.1 release

                         Git: Rev {HEAD} add49b9 


    R. M. Parrish, L. A. Burns, D. G. A. Smith, A. C. Simmonett,
    A. E. DePrince III, E. G. Hohenstein, U. Bozkaya, A. Yu. Sokolov,
    R. Di Remigio, R. M. Richard, J. F. Gonthier, A. M. James,
    H. R. McAlexander, A. Kumar, M. Saitow, X. Wang, B. P. Pritchard,
    P. Verma, H. F. Schaefer III, K. Patkowski, R. A. King, E. F. Valeev,
    F. A. Evangelista, J. M. Turney, T. D. Crawford, and C. D. Sherrill,
    J. Chem. Theory Comput. in press (2017).
    (doi: 10.1021/acs.jctc.7b00174)

    -----------------------------------------------------------------------


    Psi4 started on: Sunday, 10 January 2021 09:03AM

    Process ID:  94377
    PSIDATADIR: /usr/local/Dist/psi4conda/share/psi4
    Memory:     500.0 MiB
    Threads:    10
    
  ==> Input File <==

--------------------------------------------------------------------------
molecule{
0 1
C           -2.796557152229   -11.412553279079     2.149552280564
C            0.982331163045     9.261375802765    -5.158780140726
C            1.965111142703     9.549509720186    -4.234370321987
C            2.356568644355     8.564048930247    -3.265712721028
C            2.543238227914     8.897513759306    -1.867072985365
C            2.332717480704    10.226781089597    -1.365407944115
C            1.668792994863    10.429510813431    -0.171503260014
C            1.187703653453     9.314776451560     0.593710630024
C           -0.099274776195     9.322455612897     1.262336220572
C           -0.990752926295    10.446422170426     1.211604574182
C           -2.350282839446    10.256869619540     1.064808610760
C           -2.893323128568     8.931757922334     0.946443721075
C           -3.926589421640     8.606770993466    -0.015693896630
C           -4.475322895264     9.594907397746    -0.900884264475
C           -4.661133746010     9.303914448843    -2.237038959106
C           -4.315314607021     8.009593243689    -2.751509301102
C           -3.614810557191     7.843382700709    -4.011274364886
C           -3.198292333678     8.955128305238    -4.817842059023
C           -1.971275722682     8.945195685107    -5.453938193081
C           -1.085822054638     7.823331210725    -5.319659516640
C            0.348667570743     7.973439726241    -5.165112886499
C            1.082418261716     6.897374475061    -4.573808252116
C            2.103791621351     7.199526772765    -3.602954479729
C            2.518550570644     6.151209685249    -2.710865214574
C            2.719874248294     6.482626743932    -1.340234879514
C            2.486285580792     7.837245791556    -0.915528091544
C            1.804746040894     8.052368870571     0.335711305371
C            1.423744590095     6.904438938399     1.105688163158
C            0.158864899764     6.911413576791     1.759846037534
C           -0.678339236396     8.067134017359     1.621820591369
C           -2.095416959078     7.864772695518     1.455070194719
C           -2.589134057798     6.514386081884     1.402198659842
C           -3.591503318207     6.190986408081     0.443982841878
C           -4.068368815424     7.241186888543    -0.413061254445
C           -4.272023493591     6.937108429684    -1.806279949710
C           -4.010104403758     5.597031910163    -2.252865885624
C           -3.349288052047     5.436971622733    -3.506456754694
C           -2.954576431791     6.602143312417    -4.246832888572
C           -1.674073019250     6.592234823137    -4.908028192049
C           -0.854862415214     5.418293423660    -4.789188960189
C            0.551237570733     5.563252195242    -4.604506278524
C            1.308150026324     4.467253704844    -4.046919474329
C            2.312204325300     4.772784362240    -3.069101110167
C            2.730523211224     3.734351181612    -2.180503012314
C            2.959080183292     4.078677006472    -0.802518738266
C            2.729458450267     5.424860460643    -0.374818952759
C            2.080282258028     5.648011074144     0.884228107572
C            1.713137044066     4.521787204801     1.676057208110
C            0.434384794458     4.527927510509     2.335681870977
C           -0.413613334765     5.661309965069     2.171033719065
C           -1.817925732077     5.450117363798     1.973821716764
C           -2.310032473977     4.107353530148     1.914794304261
C           -3.300856195539     3.770146193028     0.928401838976
C           -3.774243536008     4.811949693711     0.069177401331
C           -4.001757513644     4.506370168485    -1.310664014294
C           -3.760053504205     3.168845646198    -1.770672292138
C           -3.154515351080     3.027497246279    -3.064424744560
C           -2.742182826771     4.178746972228    -3.798499765859
C           -1.459153574061     4.171580648459    -4.449349150587
C           -0.631374530694     3.014543563653    -4.338992338218
C            0.782824134246     3.137463855781    -4.102939920455
C            1.503073850345     2.031012644049    -3.500627175958
C            2.491427487881     2.352392412959    -2.515498745778
C            2.915451148344     1.318183892004    -1.612840425527
C            3.185302035755     1.675930917143    -0.250826622881
C            2.970372869050     3.032407615477     0.170222133372
C            2.352453059671     3.264708797252     1.439123296766
C            1.990180338158     2.136771112514     2.244131098079
C            0.716995688417     2.141700195627     2.898156379440
C           -0.140041640097     3.275830768723     2.721135672119
C           -1.533284458729     3.053500841226     2.487202746657
C           -2.008112654644     1.697887388726     2.412019378565
C           -2.957915731674     1.346100597267     1.400735272998
C           -3.438733229438     2.390571301135     0.535703745955
C           -3.675916380149     2.071227604621    -0.834428363629
C           -3.397293654073     0.713025624758    -1.311998103807
C           -2.899636569020     0.632898955702    -2.624962612926
C           -2.544118472640     1.775462753850    -3.356620437304
C           -1.245703527402     1.790846198158    -4.000222193361
C           -0.438954251105     0.627363050369    -3.825703849124
C            0.974907133525     0.675893562524    -3.537426062494
C            1.697966525577    -0.427058301005    -2.922203159110
C            2.693622796546    -0.067949110557    -1.937319298496
C            3.205655434983    -1.067196408430    -1.030378512197
C            3.472213621420    -0.699284195539     0.326903465925
C            3.242251120346     0.648420344350     0.736964997926
C            2.637897347206     0.885854070683     2.019332723106
C            2.276998430225    -0.238130742116     2.820666305574
C            1.002527048035    -0.234165141407     3.472224930532
C            0.148444983206     0.894894285564     3.295237054133
C           -1.246740991745     0.664677702652     3.037301786022
C           -1.723086625148    -0.678795561625     2.985760010898
C           -2.671670893683    -1.041879141891     1.973640193975
C           -3.101728140793    -0.041567396017     1.030531521724
C           -3.322396301310    -0.403071508422    -0.351779927256
C           -3.095765747604    -1.798438343984    -0.698318639240
C           -2.467131314517    -2.213576038213    -1.930616539219
C           -1.242783564388    -0.391207171784    -3.353126651174
C           -1.864302657130    -1.307689839839    -2.781105038456
C           -0.045587165531    -2.243241538491    -3.219888203602
C            1.271769225489    -1.838558134579    -2.934461662773
C            2.115732674475    -2.860899761263    -2.307611483182
C            3.083680785341    -2.467780702622    -1.336153339337
C            3.616415597679    -3.451019561342    -0.427428074483
C            3.836401629910    -3.072089988803     0.942489876438
C            3.551360608270    -1.726961859613     1.330155390388
C            2.928099984820    -1.494136074637     2.596090893021
C            2.573575313497    -2.616657623360     3.409137476534
C            1.290919532599    -2.613516909919     4.061097433478
C            0.431560762287    -1.486126493927     3.870064543123
C           -0.960637593308    -1.711487570931     3.631014110331
C           -1.449531257496    -3.053617669697     3.628621339016
C           -2.432924989950    -3.424608749734     2.646364535303
C           -2.858827640907    -2.436817979004     1.687135518497
C           -3.077065668973    -2.829687920899     0.327322527016
C           -2.840619038716    -4.221675655449    -0.008136400447
C           -2.183236184253    -4.547294379239    -1.245803040920
C           -1.833308524658    -3.480404345623    -2.100286218400
C           -0.553635578344    -3.475351505915    -2.781500331843
C            0.328390063314    -4.566219879916    -2.540296951162
C            1.710675642898    -4.247929515249    -2.322104078037
C            2.515513755477    -5.252183272597    -1.687695834118
C            3.494940514268    -4.844894683787    -0.726350949734
C            3.987745046394    -5.825040654920     0.207394055602
C            4.176425776859    -5.444235526595     1.566429100252
C            3.890561529537    -4.092006545555     1.945261635726
C            3.228990699442    -3.864174660495     3.196774308559
C            2.855237820936    -4.997862260466     3.993826070333
C            1.583945859209    -4.996040160394     4.635769351871
C            0.726335127049    -3.857777343999     4.466400733846
C           -0.675439884373    -4.078955192572     4.259893164317
C           -1.157470473032    -5.427147747922     4.265935822834
C           -2.149849102239    -5.797522227349     3.313545852635
C           -2.613457661919    -4.814986601969     2.372386978640
C           -2.813403934444    -5.223757286319     1.012732190188
C           -2.523688808469    -6.596417815404     0.666830505286
C           -1.836007777978    -6.877068313543    -0.548447360530
C           -1.494409778658    -5.786810688980    -1.403585306174
C           -0.214259589600    -5.794491753155    -2.058602453955
C            0.666446903216    -6.888681857227    -1.809644726168
C            2.057358515896    -6.617865933982    -1.648515349025
C            2.866746595198    -7.634549436697    -1.036357195050
C            3.871729249540    -7.226013842726    -0.089165430905
C            4.402915520988    -8.194693647064     0.817538473824
C            4.577276247698    -7.806075538964     2.202229997945
C            4.227018239855    -6.473544864484     2.570351931999
C            3.530843832712    -6.249506282656     3.812272004549
C            3.192860158111    -7.363861230188     4.639457444267
C            1.894051163427    -7.366043962308     5.285002986054
C            1.031657732346    -6.247706989761     5.067209318675
C           -0.381385439763    -6.465011318225     4.890186239939
C           -0.893860853822    -7.795257733099     4.947769787934
C           -1.925311830128    -8.166125357466     4.002023544006
C           -2.337982578987    -7.194389963257     3.044662940142
C           -2.524089370869    -7.614309745236     1.679936049442
C           -2.301144706514    -8.986894322753     1.329957027014
C           -1.553882009305    -9.250844856698     0.110599780330
C           -1.155003262061    -8.132779999821    -0.687454008468
C            0.132724132992    -8.134647867352    -1.334882250143
C            1.003010562390    -9.251179658805    -1.172165560844
C            2.423645179064    -8.993680340007    -1.034953948782
C            3.323417699010    -9.961695782833    -0.475651914796
C            4.292982661032    -9.571627661873     0.425616462249
C            4.642089092778    -8.772775504643     3.263502438606
C            3.962820074777    -8.560056174203     4.446187077870
C            1.276859935424    -8.568187218441     5.768625463247
C           -0.078954726529    -8.775960729049     5.606868189521
C           -2.267135371038    -9.524981417720     3.700937718574
C           -2.477768994116    -9.953342032863     2.400368763493
C           -0.849069429523   -10.478914347573    -0.142480163197
C            0.390078243353   -10.476868340830    -0.755153612452
H           -1.893772509768   -12.051437466961     2.153096584478
H           -3.457007965291   -11.791657639157     2.947671952199
H           -3.312872323058   -11.561629007374     1.187863276653
H            0.587024691672    10.068182754379    -5.783687400931
H            2.327074992593    10.578360068909    -4.145684966236
H            2.556585748415    11.090703118511    -1.998463302385
H            1.386077026743    11.448535680661     0.110038997973
H           -0.587437241675    11.461492393695     1.143535707769
H           -2.988665921010    11.126498949391     0.881912279549
H           -4.599385840215    10.627166955181    -0.559580608171
H           -4.929333993057    10.111866243819    -2.924777125724
H           -3.782337188510     9.880491838422    -4.815175077649
H           -1.620482033558     9.862885268133    -5.935693660031
H            3.150073817505   -11.029461239861    -0.641696797819
H            4.866337304066   -10.338849932179     0.954857452913
H            5.098362639617    -9.750935532181     3.083846861111
H            3.900715049010    -9.374180992440     5.174878602094
H            1.898146113717    -9.392414753877     6.132086523978
H           -0.495695190129    -9.760579507049     5.840251110581
H           -2.258821897647   -10.275923117864     4.499826156319
H           -1.217675812774   -11.419197639036     0.268324235987
H            0.957772572118   -11.411808173467    -0.790659982747
}
memory 20 GB
set opt_type ts
set basis 6-31G(d)
set reference rhf
optimize('pbe')
--------------------------------------------------------------------------

  Memory set to  18.626 GiB by Python driver.
gradient() will perform analytic gradient computation.

*** tstart() called on node20.cluster
*** at Sun Jan 10 09:03:30 2021

   => Loading Basis Set <=

    Name: 6-31G(D)
    Role: ORBITAL
    Keyword: BASIS
    atoms 1-171   entry C          line   102 file /usr/local/Dist/psi4conda/share/psi4/basis/6-31g_d_.gbs 
    atoms 172-193 entry H          line    35 file /usr/local/Dist/psi4conda/share/psi4/basis/6-31g_d_.gbs 


         ---------------------------------------------------------
                                   SCF
            by Justin Turney, Rob Parrish, and Andy Simmonett
                              RKS Reference
                       10 Threads,  19073 MiB Core
         ---------------------------------------------------------

  ==> Geometry <==

    Molecular point group: c1
    Full point group: C1

    Geometry (in Angstrom), charge = 0, multiplicity = 1:

       Center              X                  Y                   Z               Mass       
    ------------   -----------------  -----------------  -----------------  -----------------
           C         -2.796557152229   -11.412553279079     2.149552280564    12.000000000000
           C          0.982331163045     9.261375802765    -5.158780140726    12.000000000000
           C          1.965111142703     9.549509720186    -4.234370321987    12.000000000000
           C          2.356568644355     8.564048930247    -3.265712721028    12.000000000000
           C          2.543238227914     8.897513759306    -1.867072985365    12.000000000000
           C          2.332717480704    10.226781089597    -1.365407944115    12.000000000000
           C          1.668792994863    10.429510813431    -0.171503260014    12.000000000000
           C          1.187703653453     9.314776451560     0.593710630024    12.000000000000
           C         -0.099274776195     9.322455612897     1.262336220572    12.000000000000
           C         -0.990752926295    10.446422170426     1.211604574182    12.000000000000
           C         -2.350282839446    10.256869619540     1.064808610760    12.000000000000
           C         -2.893323128568     8.931757922334     0.946443721075    12.000000000000
           C         -3.926589421640     8.606770993466    -0.015693896630    12.000000000000
           C         -4.475322895264     9.594907397746    -0.900884264475    12.000000000000
           C         -4.661133746010     9.303914448843    -2.237038959106    12.000000000000
           C         -4.315314607021     8.009593243689    -2.751509301102    12.000000000000
           C         -3.614810557191     7.843382700709    -4.011274364886    12.000000000000
           C         -3.198292333678     8.955128305238    -4.817842059023    12.000000000000
           C         -1.971275722682     8.945195685107    -5.453938193081    12.000000000000
           C         -1.085822054638     7.823331210725    -5.319659516640    12.000000000000
           C          0.348667570743     7.973439726241    -5.165112886499    12.000000000000
           C          1.082418261716     6.897374475061    -4.573808252116    12.000000000000
           C          2.103791621351     7.199526772765    -3.602954479729    12.000000000000
           C          2.518550570644     6.151209685249    -2.710865214574    12.000000000000
           C          2.719874248294     6.482626743932    -1.340234879514    12.000000000000
           C          2.486285580792     7.837245791556    -0.915528091544    12.000000000000
           C          1.804746040894     8.052368870571     0.335711305371    12.000000000000
           C          1.423744590095     6.904438938399     1.105688163158    12.000000000000
           C          0.158864899764     6.911413576791     1.759846037534    12.000000000000
           C         -0.678339236396     8.067134017359     1.621820591369    12.000000000000
           C         -2.095416959078     7.864772695518     1.455070194719    12.000000000000
           C         -2.589134057798     6.514386081884     1.402198659842    12.000000000000
           C         -3.591503318207     6.190986408081     0.443982841878    12.000000000000
           C         -4.068368815424     7.241186888543    -0.413061254445    12.000000000000
           C         -4.272023493591     6.937108429684    -1.806279949710    12.000000000000
           C         -4.010104403758     5.597031910163    -2.252865885624    12.000000000000
           C         -3.349288052047     5.436971622733    -3.506456754694    12.000000000000
           C         -2.954576431791     6.602143312417    -4.246832888572    12.000000000000
           C         -1.674073019250     6.592234823137    -4.908028192049    12.000000000000
           C         -0.854862415214     5.418293423660    -4.789188960189    12.000000000000
           C          0.551237570733     5.563252195242    -4.604506278524    12.000000000000
           C          1.308150026324     4.467253704844    -4.046919474329    12.000000000000
           C          2.312204325300     4.772784362240    -3.069101110167    12.000000000000
           C          2.730523211224     3.734351181612    -2.180503012314    12.000000000000
           C          2.959080183292     4.078677006472    -0.802518738266    12.000000000000
           C          2.729458450267     5.424860460643    -0.374818952759    12.000000000000
           C          2.080282258028     5.648011074144     0.884228107572    12.000000000000
           C          1.713137044066     4.521787204801     1.676057208110    12.000000000000
           C          0.434384794458     4.527927510509     2.335681870977    12.000000000000
           C         -0.413613334765     5.661309965069     2.171033719065    12.000000000000
           C         -1.817925732077     5.450117363798     1.973821716764    12.000000000000
           C         -2.310032473977     4.107353530148     1.914794304261    12.000000000000
           C         -3.300856195539     3.770146193028     0.928401838976    12.000000000000
           C         -3.774243536008     4.811949693711     0.069177401331    12.000000000000
           C         -4.001757513644     4.506370168485    -1.310664014294    12.000000000000
           C         -3.760053504205     3.168845646198    -1.770672292138    12.000000000000
           C         -3.154515351080     3.027497246279    -3.064424744560    12.000000000000
           C         -2.742182826771     4.178746972228    -3.798499765859    12.000000000000
           C         -1.459153574061     4.171580648459    -4.449349150587    12.000000000000
           C         -0.631374530694     3.014543563653    -4.338992338218    12.000000000000
           C          0.782824134246     3.137463855781    -4.102939920455    12.000000000000
           C          1.503073850345     2.031012644049    -3.500627175958    12.000000000000
           C          2.491427487881     2.352392412959    -2.515498745778    12.000000000000
           C          2.915451148344     1.318183892004    -1.612840425527    12.000000000000
           C          3.185302035755     1.675930917143    -0.250826622881    12.000000000000
           C          2.970372869050     3.032407615477     0.170222133372    12.000000000000
           C          2.352453059671     3.264708797252     1.439123296766    12.000000000000
           C          1.990180338158     2.136771112514     2.244131098079    12.000000000000
           C          0.716995688417     2.141700195627     2.898156379440    12.000000000000
           C         -0.140041640097     3.275830768723     2.721135672119    12.000000000000
           C         -1.533284458729     3.053500841226     2.487202746657    12.000000000000
           C         -2.008112654644     1.697887388726     2.412019378565    12.000000000000
           C         -2.957915731674     1.346100597267     1.400735272998    12.000000000000
           C         -3.438733229438     2.390571301135     0.535703745955    12.000000000000
           C         -3.675916380149     2.071227604621    -0.834428363629    12.000000000000
           C         -3.397293654073     0.713025624758    -1.311998103807    12.000000000000
           C         -2.899636569020     0.632898955702    -2.624962612926    12.000000000000
           C         -2.544118472640     1.775462753850    -3.356620437304    12.000000000000
           C         -1.245703527402     1.790846198158    -4.000222193361    12.000000000000
           C         -0.438954251105     0.627363050369    -3.825703849124    12.000000000000
           C          0.974907133525     0.675893562524    -3.537426062494    12.000000000000
           C          1.697966525577    -0.427058301005    -2.922203159110    12.000000000000
           C          2.693622796546    -0.067949110557    -1.937319298496    12.000000000000
           C          3.205655434983    -1.067196408430    -1.030378512197    12.000000000000
           C          3.472213621420    -0.699284195539     0.326903465925    12.000000000000
           C          3.242251120346     0.648420344350     0.736964997926    12.000000000000
           C          2.637897347206     0.885854070683     2.019332723106    12.000000000000
           C          2.276998430225    -0.238130742116     2.820666305574    12.000000000000
           C          1.002527048035    -0.234165141407     3.472224930532    12.000000000000
           C          0.148444983206     0.894894285564     3.295237054133    12.000000000000
           C         -1.246740991745     0.664677702652     3.037301786022    12.000000000000
           C         -1.723086625148    -0.678795561625     2.985760010898    12.000000000000
           C         -2.671670893683    -1.041879141891     1.973640193975    12.000000000000
           C         -3.101728140793    -0.041567396017     1.030531521724    12.000000000000
           C         -3.322396301310    -0.403071508422    -0.351779927256    12.000000000000
           C         -3.095765747604    -1.798438343984    -0.698318639240    12.000000000000
           C         -2.467131314517    -2.213576038213    -1.930616539219    12.000000000000
           C         -1.242783564388    -0.391207171784    -3.353126651174    12.000000000000
           C         -1.864302657130    -1.307689839839    -2.781105038456    12.000000000000
           C         -0.045587165531    -2.243241538491    -3.219888203602    12.000000000000
           C          1.271769225489    -1.838558134579    -2.934461662773    12.000000000000
           C          2.115732674475    -2.860899761263    -2.307611483182    12.000000000000
           C          3.083680785341    -2.467780702622    -1.336153339337    12.000000000000
           C          3.616415597679    -3.451019561342    -0.427428074483    12.000000000000
           C          3.836401629910    -3.072089988803     0.942489876438    12.000000000000
           C          3.551360608270    -1.726961859613     1.330155390388    12.000000000000
           C          2.928099984820    -1.494136074637     2.596090893021    12.000000000000
           C          2.573575313497    -2.616657623360     3.409137476534    12.000000000000
           C          1.290919532599    -2.613516909919     4.061097433478    12.000000000000
           C          0.431560762287    -1.486126493927     3.870064543123    12.000000000000
           C         -0.960637593308    -1.711487570931     3.631014110331    12.000000000000
           C         -1.449531257496    -3.053617669697     3.628621339016    12.000000000000
           C         -2.432924989950    -3.424608749734     2.646364535303    12.000000000000
           C         -2.858827640907    -2.436817979004     1.687135518497    12.000000000000
           C         -3.077065668973    -2.829687920899     0.327322527016    12.000000000000
           C         -2.840619038716    -4.221675655449    -0.008136400447    12.000000000000
           C         -2.183236184253    -4.547294379239    -1.245803040920    12.000000000000
           C         -1.833308524658    -3.480404345623    -2.100286218400    12.000000000000
           C         -0.553635578344    -3.475351505915    -2.781500331843    12.000000000000
           C          0.328390063314    -4.566219879916    -2.540296951162    12.000000000000
           C          1.710675642898    -4.247929515249    -2.322104078037    12.000000000000
           C          2.515513755477    -5.252183272597    -1.687695834118    12.000000000000
           C          3.494940514268    -4.844894683787    -0.726350949734    12.000000000000
           C          3.987745046394    -5.825040654920     0.207394055602    12.000000000000
           C          4.176425776859    -5.444235526595     1.566429100252    12.000000000000
           C          3.890561529537    -4.092006545555     1.945261635726    12.000000000000
           C          3.228990699442    -3.864174660495     3.196774308559    12.000000000000
           C          2.855237820936    -4.997862260466     3.993826070333    12.000000000000
           C          1.583945859209    -4.996040160394     4.635769351871    12.000000000000
           C          0.726335127049    -3.857777343999     4.466400733846    12.000000000000
           C         -0.675439884373    -4.078955192572     4.259893164317    12.000000000000
           C         -1.157470473032    -5.427147747922     4.265935822834    12.000000000000
           C         -2.149849102239    -5.797522227349     3.313545852635    12.000000000000
           C         -2.613457661919    -4.814986601969     2.372386978640    12.000000000000
           C         -2.813403934444    -5.223757286319     1.012732190188    12.000000000000
           C         -2.523688808469    -6.596417815404     0.666830505286    12.000000000000
           C         -1.836007777978    -6.877068313543    -0.548447360530    12.000000000000
           C         -1.494409778658    -5.786810688980    -1.403585306174    12.000000000000
           C         -0.214259589600    -5.794491753155    -2.058602453955    12.000000000000
           C          0.666446903216    -6.888681857227    -1.809644726168    12.000000000000
           C          2.057358515896    -6.617865933982    -1.648515349025    12.000000000000
           C          2.866746595198    -7.634549436697    -1.036357195050    12.000000000000
           C          3.871729249540    -7.226013842726    -0.089165430905    12.000000000000
           C          4.402915520988    -8.194693647064     0.817538473824    12.000000000000
           C          4.577276247698    -7.806075538964     2.202229997945    12.000000000000
           C          4.227018239855    -6.473544864484     2.570351931999    12.000000000000
           C          3.530843832712    -6.249506282656     3.812272004549    12.000000000000
           C          3.192860158111    -7.363861230188     4.639457444267    12.000000000000
           C          1.894051163427    -7.366043962308     5.285002986054    12.000000000000
           C          1.031657732346    -6.247706989761     5.067209318675    12.000000000000
           C         -0.381385439763    -6.465011318225     4.890186239939    12.000000000000
           C         -0.893860853822    -7.795257733099     4.947769787934    12.000000000000
           C         -1.925311830128    -8.166125357466     4.002023544006    12.000000000000
           C         -2.337982578987    -7.194389963257     3.044662940142    12.000000000000
           C         -2.524089370869    -7.614309745236     1.679936049442    12.000000000000
           C         -2.301144706514    -8.986894322753     1.329957027014    12.000000000000
           C         -1.553882009305    -9.250844856698     0.110599780330    12.000000000000
           C         -1.155003262061    -8.132779999821    -0.687454008468    12.000000000000
           C          0.132724132992    -8.134647867352    -1.334882250143    12.000000000000
           C          1.003010562390    -9.251179658805    -1.172165560844    12.000000000000
           C          2.423645179064    -8.993680340007    -1.034953948782    12.000000000000
           C          3.323417699010    -9.961695782833    -0.475651914796    12.000000000000
           C          4.292982661032    -9.571627661873     0.425616462249    12.000000000000
           C          4.642089092778    -8.772775504643     3.263502438606    12.000000000000
           C          3.962820074777    -8.560056174203     4.446187077870    12.000000000000
           C          1.276859935424    -8.568187218441     5.768625463247    12.000000000000
           C         -0.078954726529    -8.775960729049     5.606868189521    12.000000000000
           C         -2.267135371038    -9.524981417720     3.700937718574    12.000000000000
           C         -2.477768994116    -9.953342032863     2.400368763493    12.000000000000
           C         -0.849069429523   -10.478914347573    -0.142480163197    12.000000000000
           C          0.390078243353   -10.476868340830    -0.755153612452    12.000000000000
           H         -1.893772509768   -12.051437466961     2.153096584478     1.007825032070
           H         -3.457007965291   -11.791657639157     2.947671952199     1.007825032070
           H         -3.312872323058   -11.561629007374     1.187863276653     1.007825032070
           H          0.587024691672    10.068182754379    -5.783687400931     1.007825032070
           H          2.327074992593    10.578360068909    -4.145684966236     1.007825032070
           H          2.556585748415    11.090703118511    -1.998463302385     1.007825032070
           H          1.386077026743    11.448535680661     0.110038997973     1.007825032070
           H         -0.587437241675    11.461492393695     1.143535707769     1.007825032070
           H         -2.988665921010    11.126498949391     0.881912279549     1.007825032070
           H         -4.599385840215    10.627166955181    -0.559580608171     1.007825032070
           H         -4.929333993057    10.111866243819    -2.924777125724     1.007825032070
           H         -3.782337188510     9.880491838422    -4.815175077649     1.007825032070
           H         -1.620482033558     9.862885268133    -5.935693660031     1.007825032070
           H          3.150073817505   -11.029461239861    -0.641696797819     1.007825032070
           H          4.866337304066   -10.338849932179     0.954857452913     1.007825032070
           H          5.098362639617    -9.750935532181     3.083846861111     1.007825032070
           H          3.900715049010    -9.374180992440     5.174878602094     1.007825032070
           H          1.898146113717    -9.392414753877     6.132086523978     1.007825032070
           H         -0.495695190129    -9.760579507049     5.840251110581     1.007825032070
           H         -2.258821897647   -10.275923117864     4.499826156319     1.007825032070
           H         -1.217675812774   -11.419197639036     0.268324235987     1.007825032070
           H          0.957772572118   -11.411808173467    -0.790659982747     1.007825032070

  Running in c1 symmetry.

  Rotational constants: A =      0.00068  B =      0.00018  C =      0.00018 [cm^-1]
  Rotational constants: A =     20.24321  B =      5.45234  C =      5.43562 [MHz]
  Nuclear repulsion = 42206.893945496616652

  Charge       = 0
  Multiplicity = 1
  Electrons    = 1048
  Nalpha       = 524
  Nbeta        = 524

  ==> Algorithm <==

  SCF Algorithm Type is DF.
  DIIS enabled.
  MOM disabled.
  Fractional occupation disabled.
  Guess Type is SAD.
  Energy threshold   = 1.00e-08
  Density threshold  = 1.00e-08
  Integral threshold = 0.00e+00

  ==> Primary Basis <==

  Basis Set: 6-31G(D)
    Blend: 6-31G(D)
    Number of shells: 1070
    Number of basis function: 2609
    Number of Cartesian functions: 2609
    Spherical Harmonics?: false
    Max angular momentum: 2

  ==> DFT Potential <==

   => PBE Composite Functional <= 

    PBE GGA Exchange-Correlation Functional

    J.P. Perdew et. al., Phys. Rev. Lett., 77(18), 3865-3868, 1996

    Points   =           5000
    Deriv    =              1
    GGA      =           TRUE
    Meta     =          FALSE

    X_LRC        =          FALSE
    X_Hybrid     =          FALSE
    X_Alpha      =   0.000000E+00
    X_Omega      =   0.000000E+00
    C_LRC        =          FALSE
    C_Hybrid     =          FALSE
    C_Alpha      =   0.000000E+00
    C_Omega      =   0.000000E+00

   => Exchange Functionals <=

    1.0000   PBE_X

   => Correlation Functionals <=

    1.0000   PBE_C

   => Molecular Quadrature <=

    Radial Scheme    =       TREUTLER
    Pruning Scheme   =           FLAT
    Nuclear Scheme   =       TREUTLER

    BS radius alpha  =              1
    Pruning alpha    =              1
    Radial Points    =             75
    Spherical Points =            302
    Total Points     =        4284315
    Total Blocks     =           3052
    Max Points       =           4999
    Max Functions    =            962

   => Loading Basis Set <=

    Name: (6-31G(D) AUX)
    Role: JKFIT
    Keyword: DF_BASIS_SCF
    atoms 1-171   entry C          line   120 file /usr/local/Dist/psi4conda/share/psi4/basis/cc-pvdz-jkfit.gbs 
    atoms 172-193 entry H          line    50 file /usr/local/Dist/psi4conda/share/psi4/basis/cc-pvdz-jkfit.gbs 

  ==> Pre-Iterations <==

   -------------------------------------------------------
    Irrep   Nso     Nmo     Nalpha   Nbeta   Ndocc  Nsocc
   -------------------------------------------------------
     A       2609    2609       0       0       0       0
   -------------------------------------------------------
    Total    2609    2609     524     524     524       0
   -------------------------------------------------------

  ==> Integral Setup <==

  ==> DFJK: Density-Fitted J/K Matrices <==

    J tasked:                  Yes
    K tasked:                   No
    wK tasked:                  No
    OpenMP threads:             10
    Integrals threads:          10
    Memory (MB):             14305
    Algorithm:                Disk
    Integral Cache:           NONE
    Schwarz Cutoff:          1E-12
    Fitting Condition:       1E-12

   => Auxiliary Basis Set <=

  Basis Set: (6-31G(D) AUX)
    Blend: CC-PVDZ-JKFIT
    Number of shells: 4302
    Number of basis function: 14401
    Number of Cartesian functions: 14401
    Spherical Harmonics?: false
    Max angular momentum: 3

  Minimum eigenvalue in the overlap matrix is 7.7101790125E-05.
  Using Symmetric Orthogonalization.

  SCF Guess: Superposition of Atomic Densities via on-the-fly atomic UHF.

  ==> Iterations <==

                           Total Energy        Delta E     RMS |[F,P]|

   @DF-RKS iter   0: -6572.55039645033958   -6.57255e+03   2.65916e-02 
   @DF-RKS iter   1: -6518.91543736390577    5.36350e+01   2.80081e-03 
   @DF-RKS iter   2: -6429.16246613922613    8.97530e+01   1.33518e-02 DIIS
   @DF-RKS iter   3: -6497.83876416819567   -6.86763e+01   6.12843e-03 DIIS
   @DF-RKS iter   4: -6490.24194706263279    7.59682e+00   6.79953e-03 DIIS
   @DF-RKS iter   5: -6519.62076466282906   -2.93788e+01   1.85434e-03 DIIS
   @DF-RKS iter   6: -6456.29223383016324    6.33285e+01   9.08187e-03 DIIS
   @DF-RKS iter   7: -6521.26722814857203   -6.49750e+01   1.15223e-03 DIIS
   @DF-RKS iter   8: -6520.28254989715151    9.84678e-01   1.65531e-03 DIIS
   @DF-RKS iter   9: -6521.86846410310955   -1.58591e+00   5.71621e-04 DIIS
   @DF-RKS iter  10: -6521.88546597122695   -1.70019e-02   5.48041e-04 DIIS
   @DF-RKS iter  11: -6521.98889419059105   -1.03428e-01   3.85690e-04 DIIS
   @DF-RKS iter  12: -6522.03981726605707   -5.09231e-02   1.78977e-04 DIIS
   @DF-RKS iter  13: -6522.04744046415726   -7.62320e-03   1.26309e-04 DIIS
   @DF-RKS iter  14: -6522.05611229335409   -8.67183e-03   4.99708e-05 DIIS
   @DF-RKS iter  15: -6522.05711002377484   -9.97730e-04   2.29562e-05 DIIS
   @DF-RKS iter  16: -6522.05732058813373   -2.10564e-04   1.12681e-05 DIIS
   @DF-RKS iter  17: -6522.05731424174883    6.34638e-06   9.27444e-06 DIIS
   @DF-RKS iter  18: -6522.05738125349490   -6.70117e-05   2.42735e-06 DIIS
   @DF-RKS iter  19: -6522.05738386813482   -2.61464e-06   6.24088e-07 DIIS
   @DF-RKS iter  20: -6522.05738307606498    7.92070e-07   1.23468e-06 DIIS
   @DF-RKS iter  21: -6522.05738400461541   -9.28550e-07   3.59975e-07 DIIS
   @DF-RKS iter  22: -6522.05738384476990    1.59846e-07   6.48483e-07 DIIS
   @DF-RKS iter  23: -6522.05738405653301   -2.11763e-07   7.75502e-08 DIIS
   @DF-RKS iter  24: -6522.05738405144166    5.09135e-09   1.17806e-07 DIIS
   @DF-RKS iter  25: -6522.05738405319971   -1.75805e-09   1.13207e-07 DIIS
   @DF-RKS iter  26: -6522.05738405873035   -5.53064e-09   3.60077e-08 DIIS
   @DF-RKS iter  27: -6522.05738405945885   -7.28505e-10   2.40970e-08 DIIS
   @DF-RKS iter  28: -6522.05738405954435   -8.54925e-11   2.46748e-08 DIIS
   @DF-RKS iter  29: -6522.05738405925422    2.90129e-10   1.14519e-08 DIIS
   @DF-RKS iter  30: -6522.05738405992997   -6.75755e-10   1.40379e-08 DIIS
   @DF-RKS iter  31: -6522.05738405954799    3.81988e-10   8.51961e-09 DIIS

  ==> Post-Iterations <==

    Orbital Energies (a.u.)
    -----------------------

    Doubly Occupied:                                                      

       1A     -9.970759     2A     -9.969314     3A     -9.950466  
       4A     -9.950083     5A     -9.946256     6A     -9.945827  
       7A     -9.942699     8A     -9.942284     9A     -9.939963  
      10A     -9.939963    11A     -9.937770    12A     -9.937218  
      13A     -9.937195    14A     -9.937099    15A     -9.936072  
      16A     -9.935961    17A     -9.934636    18A     -9.934567  
      19A     -9.933655    20A     -9.933644    21A     -9.933627  
      22A     -9.933624    23A     -9.933598    24A     -9.933562  
      25A     -9.933525    26A     -9.933325    27A     -9.933050  
      28A     -9.932930    29A     -9.932894    30A     -9.932515  
      31A     -9.932463    32A     -9.932405    33A     -9.932288  
      34A     -9.932086    35A     -9.932030    36A     -9.931838  
      37A     -9.931790    38A     -9.931785    39A     -9.931715  
      40A     -9.931705    41A     -9.931697    42A     -9.931654  
      43A     -9.931585    44A     -9.931541    45A     -9.931442  
      46A     -9.931405    47A     -9.931366    48A     -9.931329  
      49A     -9.931254    50A     -9.931222    51A     -9.931188  
      52A     -9.931161    53A     -9.931145    54A     -9.931109  
      55A     -9.931088    56A     -9.931055    57A     -9.931021  
      58A     -9.931016    59A     -9.931006    60A     -9.930990  
      61A     -9.930960    62A     -9.930920    63A     -9.930890  
      64A     -9.930882    65A     -9.930851    66A     -9.930816  
      67A     -9.930810    68A     -9.930756    69A     -9.930727  
      70A     -9.930719    71A     -9.930706    72A     -9.930688  
      73A     -9.930678    74A     -9.930668    75A     -9.930650  
      76A     -9.930640    77A     -9.930638    78A     -9.930609  
      79A     -9.930593    80A     -9.930589    81A     -9.930567  
      82A     -9.930560    83A     -9.930552    84A     -9.930542  
      85A     -9.930534    86A     -9.930510    87A     -9.930466  
      88A     -9.930448    89A     -9.930435    90A     -9.930423  
      91A     -9.930406    92A     -9.930355    93A     -9.930333  
      94A     -9.930321    95A     -9.930311    96A     -9.930310  
      97A     -9.930308    98A     -9.930296    99A     -9.930287  
     100A     -9.930287   101A     -9.930282   102A     -9.930270  
     103A     -9.930248   104A     -9.930246   105A     -9.930239  
     106A     -9.930230   107A     -9.930190   108A     -9.930182  
     109A     -9.930174   110A     -9.930166   111A     -9.930157  
     112A     -9.930108   113A     -9.929973   114A     -9.929848  
     115A     -9.929773   116A     -9.929761   117A     -9.929741  
     118A     -9.929716   119A     -9.929653   120A     -9.929601  
     121A     -9.929594   122A     -9.929529   123A     -9.929515  
     124A     -9.929496   125A     -9.929453   126A     -9.929451  
     127A     -9.929435   128A     -9.929381   129A     -9.929371  
     130A     -9.929353   131A     -9.929283   132A     -9.929255  
     133A     -9.929214   134A     -9.929204   135A     -9.929187  
     136A     -9.929167   137A     -9.929155   138A     -9.928999  
     139A     -9.928929   140A     -9.928924   141A     -9.928729  
     142A     -9.928562   143A     -9.928558   144A     -9.928305  
     145A     -9.928065   146A     -9.926597   147A     -9.926273  
     148A     -9.925279   149A     -9.925021   150A     -9.920610  
     151A     -9.920556   152A     -9.920528   153A     -9.920511  
     154A     -9.920419   155A     -9.920352   156A     -9.920312  
     157A     -9.920234   158A     -9.920159   159A     -9.920091  
     160A     -9.920077   161A     -9.920045   162A     -9.919940  
     163A     -9.919914   164A     -9.919876   165A     -9.919802  
     166A     -9.919184   167A     -9.918286   168A     -9.915391  
     169A     -9.912728   170A     -9.912663   171A     -9.911607  
     172A     -0.858663   173A     -0.852876   174A     -0.849671  
     175A     -0.847828   176A     -0.843821   177A     -0.842379  
     178A     -0.840255   179A     -0.831045   180A     -0.830794  
     181A     -0.827865   182A     -0.821438   183A     -0.820603  
     184A     -0.817195   185A     -0.816983   186A     -0.814949  
     187A     -0.814492   188A     -0.807774   189A     -0.803988  
     190A     -0.802530   191A     -0.798568   192A     -0.798052  
     193A     -0.791927   194A     -0.789783   195A     -0.787057  
     196A     -0.780026   197A     -0.777365   198A     -0.776010  
     199A     -0.775490   200A     -0.772814   201A     -0.770253  
     202A     -0.770038   203A     -0.768561   204A     -0.761248  
     205A     -0.759434   206A     -0.757933   207A     -0.754020  
     208A     -0.753450   209A     -0.751657   210A     -0.751070  
     211A     -0.745318   212A     -0.744560   213A     -0.736095  
     214A     -0.732040   215A     -0.728799   216A     -0.726154  
     217A     -0.725408   218A     -0.725257   219A     -0.723413  
     220A     -0.716079   221A     -0.714443   222A     -0.711330  
     223A     -0.711164   224A     -0.710106   225A     -0.709818  
     226A     -0.705724   227A     -0.702450   228A     -0.700404  
     229A     -0.698792   230A     -0.696618   231A     -0.696345  
     232A     -0.694520   233A     -0.689277   234A     -0.688342  
     235A     -0.687458   236A     -0.684215   237A     -0.679824  
     238A     -0.675327   239A     -0.673528   240A     -0.671636  
     241A     -0.670118   242A     -0.668539   243A     -0.667984  
     244A     -0.666173   245A     -0.666129   246A     -0.659076  
     247A     -0.657576   248A     -0.654821   249A     -0.654538  
     250A     -0.650392   251A     -0.648358   252A     -0.645709  
     253A     -0.641902   254A     -0.637049   255A     -0.632444  
     256A     -0.622069   257A     -0.616942   258A     -0.613433  
     259A     -0.612759   260A     -0.610937   261A     -0.609490  
     262A     -0.607222   263A     -0.606430   264A     -0.603038  
     265A     -0.601498   266A     -0.599236   267A     -0.596675  
     268A     -0.595902   269A     -0.594814   270A     -0.590894  
     271A     -0.587455   272A     -0.586713   273A     -0.581215  
     274A     -0.580678   275A     -0.578745   276A     -0.578003  
     277A     -0.575642   278A     -0.571750   279A     -0.565526  
     280A     -0.562442   281A     -0.556442   282A     -0.555931  
     283A     -0.552524   284A     -0.551923   285A     -0.550490  
     286A     -0.549841   287A     -0.548888   288A     -0.548595  
     289A     -0.547512   290A     -0.544279   291A     -0.543836  
     292A     -0.543316   293A     -0.542930   294A     -0.541811  
     295A     -0.532747   296A     -0.531927   297A     -0.526797  
     298A     -0.522315   299A     -0.520689   300A     -0.515626  
     301A     -0.512505   302A     -0.511383   303A     -0.509649  
     304A     -0.507508   305A     -0.500361   306A     -0.498925  
     307A     -0.496068   308A     -0.493979   309A     -0.490121  
     310A     -0.484610   311A     -0.483705   312A     -0.482680  
     313A     -0.480867   314A     -0.479987   315A     -0.478460  
     316A     -0.476513   317A     -0.474659   318A     -0.474337  
     319A     -0.472091   320A     -0.469944   321A     -0.468101  
     322A     -0.465933   323A     -0.465796   324A     -0.465367  
     325A     -0.464621   326A     -0.463496   327A     -0.461455  
     328A     -0.460119   329A     -0.459167   330A     -0.457744  
     331A     -0.455023   332A     -0.449712   333A     -0.448302  
     334A     -0.443027   335A     -0.442241   336A     -0.440586  
     337A     -0.438889   338A     -0.438215   339A     -0.436486  
     340A     -0.433780   341A     -0.431063   342A     -0.426161  
     343A     -0.423671   344A     -0.422575   345A     -0.421042  
     346A     -0.420513   347A     -0.419108   348A     -0.418078  
     349A     -0.416928   350A     -0.416715   351A     -0.414699  
     352A     -0.414180   353A     -0.413785   354A     -0.412964  
     355A     -0.412016   356A     -0.411295   357A     -0.410636  
     358A     -0.410227   359A     -0.409544   360A     -0.407549  
     361A     -0.404850   362A     -0.404023   363A     -0.403179  
     364A     -0.402896   365A     -0.402450   366A     -0.401590  
     367A     -0.401138   368A     -0.399109   369A     -0.398379  
     370A     -0.397823   371A     -0.397437   372A     -0.397149  
     373A     -0.395976   374A     -0.394768   375A     -0.393636  
     376A     -0.392711   377A     -0.391576   378A     -0.390727  
     379A     -0.390017   380A     -0.389872   381A     -0.388745  
     382A     -0.388471   383A     -0.387887   384A     -0.386870  
     385A     -0.385757   386A     -0.384657   387A     -0.383187  
     388A     -0.382366   389A     -0.381346   390A     -0.378958  
     391A     -0.377078   392A     -0.376172   393A     -0.375602  
     394A     -0.374695   395A     -0.372859   396A     -0.372262  
     397A     -0.371153   398A     -0.370482   399A     -0.369975  
     400A     -0.369621   401A     -0.368760   402A     -0.367756  
     403A     -0.366976   404A     -0.366188   405A     -0.365858  
     406A     -0.364389   407A     -0.364072   408A     -0.363641  
     409A     -0.362910   410A     -0.362344   411A     -0.361309  
     412A     -0.360086   413A     -0.358595   414A     -0.357487  
     415A     -0.356940   416A     -0.355433   417A     -0.354929  
     418A     -0.353959   419A     -0.351326   420A     -0.351158  
     421A     -0.347253   422A     -0.345982   423A     -0.344679  
     424A     -0.343667   425A     -0.342286   426A     -0.338046  
     427A     -0.335074   428A     -0.333897   429A     -0.332000  
     430A     -0.329623   431A     -0.328551   432A     -0.328129  
     433A     -0.326780   434A     -0.323424   435A     -0.322852  
     436A     -0.320716   437A     -0.320648   438A     -0.320276  
     439A     -0.320062   440A     -0.319278   441A     -0.318052  
     442A     -0.317088   443A     -0.316443   444A     -0.313633  
     445A     -0.311839   446A     -0.309679   447A     -0.309395  
     448A     -0.308522   449A     -0.307392   450A     -0.306660  
     451A     -0.306361   452A     -0.305457   453A     -0.304968  
     454A     -0.304587   455A     -0.304022   456A     -0.303055  
     457A     -0.298747   458A     -0.297773   459A     -0.296705  
     460A     -0.293978   461A     -0.293669   462A     -0.291918  
     463A     -0.291093   464A     -0.289477   465A     -0.288878  
     466A     -0.288760   467A     -0.288122   468A     -0.287808  
     469A     -0.285995   470A     -0.282307   471A     -0.280989  
     472A     -0.278861   473A     -0.278598   474A     -0.278174  
     475A     -0.275959   476A     -0.273321   477A     -0.269251  
     478A     -0.268616   479A     -0.268301   480A     -0.267683  
     481A     -0.265221   482A     -0.264430   483A     -0.263885  
     484A     -0.262089   485A     -0.260188   486A     -0.258571  
     487A     -0.249827   488A     -0.245704   489A     -0.245377  
     490A     -0.244682   491A     -0.242819   492A     -0.241660  
     493A     -0.241366   494A     -0.240980   495A     -0.240166  
     496A     -0.238623   497A     -0.236664   498A     -0.231714  
     499A     -0.228120   500A     -0.227691   501A     -0.225740  
     502A     -0.224882   503A     -0.224320   504A     -0.218449  
     505A     -0.218147   506A     -0.216882   507A     -0.216458  
     508A     -0.211692   509A     -0.209600   510A     -0.208911  
     511A     -0.204053   512A     -0.202730   513A     -0.197527  
     514A     -0.197235   515A     -0.194386   516A     -0.191431  
     517A     -0.189780   518A     -0.189485   519A     -0.180604  
     520A     -0.179147   521A     -0.169981   522A     -0.152619  
     523A     -0.149296   524A     -0.145819  

    Virtual:                                                              

     525A     -0.125894   526A     -0.122848   527A     -0.104102  
     528A     -0.101747   529A     -0.099113   530A     -0.094385  
     531A     -0.088167   532A     -0.087187   533A     -0.085983  
     534A     -0.084991   535A     -0.083815   536A     -0.082547  
     537A     -0.080075   538A     -0.078712   539A     -0.075223  
     540A     -0.074106   541A     -0.073484   542A     -0.071870  
     543A     -0.068852   544A     -0.067598   545A     -0.064893  
     546A     -0.063778   547A     -0.062956   548A     -0.060698  
     549A     -0.055230   550A     -0.053763   551A     -0.053608  
     552A     -0.049070   553A     -0.047842   554A     -0.045112  
     555A     -0.043308   556A     -0.042449   557A     -0.036414  
     558A     -0.035433   559A     -0.033903   560A     -0.031753  
     561A     -0.031399   562A     -0.031027   563A     -0.026454  
     564A     -0.022837   565A     -0.022534   566A     -0.018295  
     567A     -0.018258   568A     -0.012349   569A     -0.011382  
     570A     -0.007810   571A     -0.003424   572A      0.002756  
     573A      0.006052   574A      0.007310   575A      0.007635  
     576A      0.011466   577A      0.017328   578A      0.021805  
     579A      0.027430   580A      0.029092   581A      0.029902  
     582A      0.031132   583A      0.034233   584A      0.039569  
     585A      0.039917   586A      0.041741   587A      0.042660  
     588A      0.043830   589A      0.044506   590A      0.049906  
     591A      0.052175   592A      0.052915   593A      0.053791  
     594A      0.055394   595A      0.057095   596A      0.060328  
     597A      0.061564   598A      0.064165   599A      0.064452  
     600A      0.067066   601A      0.074144   602A      0.076683  
     603A      0.076861   604A      0.079539   605A      0.080715  
     606A      0.082571   607A      0.083324   608A      0.084664  
     609A      0.086468   610A      0.086760   611A      0.087549  
     612A      0.089803   613A      0.089917   614A      0.090647  
     615A      0.091065   616A      0.091160   617A      0.091814  
     618A      0.093271   619A      0.094234   620A      0.097666  
     621A      0.098347   622A      0.115681   623A      0.127862  
     624A      0.131536   625A      0.133939   626A      0.137548  
     627A      0.138636   628A      0.139756   629A      0.140858  
     630A      0.143563   631A      0.144118   632A      0.145378  
     633A      0.148201   634A      0.149009   635A      0.155297  
     636A      0.156243   637A      0.157262   638A      0.158393  
     639A      0.158992   640A      0.160487   641A      0.162024  
     642A      0.163862   643A      0.164331   644A      0.166843  
     645A      0.167793   646A      0.172849   647A      0.174011  
     648A      0.174569   649A      0.177697   650A      0.178134  
     651A      0.178628   652A      0.178662   653A      0.180364  
     654A      0.181277   655A      0.182764   656A      0.183030  
     657A      0.183681   658A      0.184407   659A      0.186878  
     660A      0.187394   661A      0.188333   662A      0.191883  
     663A      0.192522   664A      0.192900   665A      0.194496  
     666A      0.195298   667A      0.195959   668A      0.196947  
     669A      0.197340   670A      0.198846   671A      0.199123  
     672A      0.200103   673A      0.200966   674A      0.202851  
     675A      0.203485   676A      0.204139   677A      0.204893  
     678A      0.205148   679A      0.206165   680A      0.207732  
     681A      0.210254   682A      0.210755   683A      0.214097  
     684A      0.214244   685A      0.215321   686A      0.215492  
     687A      0.217449   688A      0.218906   689A      0.221383  
     690A      0.223415   691A      0.228280   692A      0.228828  
     693A      0.229769   694A      0.231096   695A      0.232916  
     696A      0.234106   697A      0.236965   698A      0.238954  
     699A      0.240680   700A      0.241485   701A      0.242332  
     702A      0.246977   703A      0.248414   704A      0.249617  
     705A      0.250879   706A      0.251546   707A      0.254039  
     708A      0.256685   709A      0.258249   710A      0.261066  
     711A      0.264035   712A      0.266394   713A      0.269410  
     714A      0.270926   715A      0.272163   716A      0.273768  
     717A      0.274199   718A      0.275676   719A      0.277297  
     720A      0.279709   721A      0.280660   722A      0.283265  
     723A      0.284429   724A      0.285599   725A      0.286911  
     726A      0.288480   727A      0.288754   728A      0.289315  
     729A      0.292559   730A      0.294228   731A      0.296028  
     732A      0.297590   733A      0.300787   734A      0.301220  
     735A      0.302040   736A      0.304345   737A      0.313024  
     738A      0.316207   739A      0.316900   740A      0.319219  
     741A      0.322256   742A      0.322455   743A      0.324861  
     744A      0.326338   745A      0.327359   746A      0.328044  
     747A      0.333373   748A      0.333903   749A      0.335578  
     750A      0.336289   751A      0.338673   752A      0.342790  
     753A      0.345068   754A      0.345765   755A      0.345979  
     756A      0.347942   757A      0.356740   758A      0.357086  
     759A      0.360825   760A      0.362339   761A      0.363598  
     762A      0.365461   763A      0.371105   764A      0.371445  
     765A      0.372563   766A      0.376631   767A      0.377699  
     768A      0.380696   769A      0.383029   770A      0.383330  
     771A      0.384766   772A      0.386440   773A      0.388351  
     774A      0.388720   775A      0.390904   776A      0.391982  
     777A      0.392175   778A      0.394263   779A      0.395511  
     780A      0.397251   781A      0.400146   782A      0.401624  
     783A      0.402165   784A      0.403903   785A      0.404065  
     786A      0.404437   787A      0.404666   788A      0.408548  
     789A      0.409161   790A      0.410113   791A      0.411253  
     792A      0.412413   793A      0.412954   794A      0.415377  
     795A      0.416691   796A      0.417478   797A      0.418021  
     798A      0.419352   799A      0.421893   800A      0.423643  
     801A      0.425640   802A      0.427945   803A      0.428428  
     804A      0.429069   805A      0.431845   806A      0.433473  
     807A      0.437025   808A      0.437933   809A      0.438918  
     810A      0.439915   811A      0.441253   812A      0.441601  
     813A      0.442446   814A      0.444135   815A      0.445877  
     816A      0.446009   817A      0.448001   818A      0.448320  
     819A      0.449257   820A      0.449458   821A      0.450881  
     822A      0.452528   823A      0.452906   824A      0.454599  
     825A      0.456340   826A      0.457454   827A      0.460506  
     828A      0.461405   829A      0.462030   830A      0.462925  
     831A      0.463485   832A      0.463995   833A      0.465510  
     834A      0.466033   835A      0.466440   836A      0.467527  
     837A      0.470164   838A      0.470564   839A      0.470948  
     840A      0.471031   841A      0.471582   842A      0.472624  
     843A      0.473620   844A      0.474104   845A      0.475292  
     846A      0.475438   847A      0.476211   848A      0.477038  
     849A      0.477795   850A      0.478479   851A      0.478707  
     852A      0.479191   853A      0.479653   854A      0.479947  
     855A      0.480749   856A      0.481530   857A      0.482488  
     858A      0.482697   859A      0.483369   860A      0.483516  
     861A      0.483997   862A      0.484550   863A      0.484892  
     864A      0.486038   865A      0.486373   866A      0.487643  
     867A      0.487833   868A      0.488695   869A      0.489196  
     870A      0.490210   871A      0.490610   872A      0.491119  
     873A      0.491560   874A      0.491670   875A      0.492877  
     876A      0.493032   877A      0.494398   878A      0.495342  
     879A      0.496430   880A      0.497106   881A      0.497286  
     882A      0.497591   883A      0.498168   884A      0.498685  
     885A      0.499282   886A      0.499581   887A      0.500280  
     888A      0.500732   889A      0.501289   890A      0.501406  
     891A      0.502120   892A      0.503215   893A      0.503523  
     894A      0.504121   895A      0.504605   896A      0.505066  
     897A      0.505956   898A      0.507065   899A      0.507202  
     900A      0.507604   901A      0.508289   902A      0.508687  
     903A      0.509695   904A      0.510794   905A      0.511340  
     906A      0.512620   907A      0.512994   908A      0.514359  
     909A      0.514948   910A      0.515244   911A      0.515984  
     912A      0.516282   913A      0.516596   914A      0.516990  
     915A      0.517016   916A      0.518352   917A      0.518931  
     918A      0.520050   919A      0.520640   920A      0.520872  
     921A      0.521607   922A      0.522974   923A      0.523498  
     924A      0.523696   925A      0.524442   926A      0.525354  
     927A      0.526237   928A      0.526698   929A      0.527285  
     930A      0.528153   931A      0.528842   932A      0.529278  
     933A      0.529653   934A      0.531089   935A      0.531193  
     936A      0.531363   937A      0.531873   938A      0.532792  
     939A      0.533507   940A      0.533872   941A      0.534852  
     942A      0.535790   943A      0.536519   944A      0.537191  
     945A      0.537807   946A      0.538349   947A      0.538948  
     948A      0.539504   949A      0.540095   950A      0.540171  
     951A      0.541644   952A      0.542050   953A      0.542568  
     954A      0.543343   955A      0.543762   956A      0.544759  
     957A      0.545562   958A      0.546326   959A      0.546801  
     960A      0.547971   961A      0.550076   962A      0.550503  
     963A      0.550727   964A      0.551275   965A      0.552713  
     966A      0.553156   967A      0.553572   968A      0.553929  
     969A      0.554272   970A      0.554515   971A      0.555113  
     972A      0.555530   973A      0.556787   974A      0.557102  
     975A      0.557946   976A      0.558120   977A      0.559377  
     978A      0.559824   979A      0.560798   980A      0.562065  
     981A      0.562903   982A      0.563444   983A      0.565019  
     984A      0.566274   985A      0.566730   986A      0.568394  
     987A      0.569331   988A      0.571366   989A      0.572113  
     990A      0.572416   991A      0.573351   992A      0.574048  
     993A      0.575844   994A      0.576881   995A      0.577983  
     996A      0.578703   997A      0.581003   998A      0.583115  
     999A      0.584946  1000A      0.587396  1001A      0.590572  
    1002A      0.592020  1003A      0.593245  1004A      0.595712  
    1005A      0.595768  1006A      0.596815  1007A      0.598431  
    1008A      0.599238  1009A      0.599375  1010A      0.600996  
    1011A      0.602772  1012A      0.603304  1013A      0.604883  
    1014A      0.606582  1015A      0.607089  1016A      0.611969  
    1017A      0.613340  1018A      0.614878  1019A      0.615463  
    1020A      0.615934  1021A      0.616091  1022A      0.619052  
    1023A      0.621560  1024A      0.622476  1025A      0.624105  
    1026A      0.625872  1027A      0.626173  1028A      0.626525  
    1029A      0.626978  1030A      0.627180  1031A      0.628290  
    1032A      0.628513  1033A      0.629130  1034A      0.630456  
    1035A      0.631102  1036A      0.631443  1037A      0.632542  
    1038A      0.632840  1039A      0.633770  1040A      0.634940  
    1041A      0.635562  1042A      0.636204  1043A      0.636960  
    1044A      0.637245  1045A      0.637362  1046A      0.637932  
    1047A      0.639113  1048A      0.640216  1049A      0.641543  
    1050A      0.642665  1051A      0.643360  1052A      0.644024  
    1053A      0.644418  1054A      0.646520  1055A      0.648590  
    1056A      0.652572  1057A      0.653012  1058A      0.653780  
    1059A      0.655602  1060A      0.657354  1061A      0.657638  
    1062A      0.660635  1063A      0.664809  1064A      0.669690  
    1065A      0.672427  1066A      0.675811  1067A      0.677504  
    1068A      0.679005  1069A      0.679574  1070A      0.681828  
    1071A      0.682831  1072A      0.683674  1073A      0.685299  
    1074A      0.687785  1075A      0.688185  1076A      0.689729  
    1077A      0.690557  1078A      0.693556  1079A      0.694111  
    1080A      0.695123  1081A      0.695556  1082A      0.696117  
    1083A      0.697638  1084A      0.698575  1085A      0.698975  
    1086A      0.700356  1087A      0.701888  1088A      0.702134  
    1089A      0.703085  1090A      0.704037  1091A      0.704589  
    1092A      0.706888  1093A      0.707114  1094A      0.708897  
    1095A      0.709005  1096A      0.710325  1097A      0.712293  
    1098A      0.713701  1099A      0.714689  1100A      0.715172  
    1101A      0.715781  1102A      0.717378  1103A      0.717832  
    1104A      0.718877  1105A      0.719940  1106A      0.722250  
    1107A      0.723342  1108A      0.724049  1109A      0.726850  
    1110A      0.727354  1111A      0.728451  1112A      0.730466  
    1113A      0.731576  1114A      0.732708  1115A      0.735569  
    1116A      0.735943  1117A      0.736969  1118A      0.738443  
    1119A      0.739300  1120A      0.741067  1121A      0.742322  
    1122A      0.744146  1123A      0.746523  1124A      0.746677  
    1125A      0.747774  1126A      0.751541  1127A      0.751832  
    1128A      0.752195  1129A      0.754546  1130A      0.756920  
    1131A      0.758071  1132A      0.760166  1133A      0.761083  
    1134A      0.761353  1135A      0.763580  1136A      0.764623  
    1137A      0.767815  1138A      0.768664  1139A      0.769773  
    1140A      0.772915  1141A      0.775357  1142A      0.776122  
    1143A      0.777197  1144A      0.779540  1145A      0.780085  
    1146A      0.783524  1147A      0.788025  1148A      0.789429  
    1149A      0.792578  1150A      0.793793  1151A      0.794436  
    1152A      0.795594  1153A      0.797177  1154A      0.797895  
    1155A      0.798677  1156A      0.799629  1157A      0.801300  
    1158A      0.802996  1159A      0.805069  1160A      0.806434  
    1161A      0.806810  1162A      0.807776  1163A      0.809109  
    1164A      0.809285  1165A      0.811638  1166A      0.812276  
    1167A      0.813405  1168A      0.814565  1169A      0.815562  
    1170A      0.816612  1171A      0.817843  1172A      0.821171  
    1173A      0.821519  1174A      0.823111  1175A      0.824065  
    1176A      0.825261  1177A      0.825731  1178A      0.826673  
    1179A      0.827081  1180A      0.827431  1181A      0.828169  
    1182A      0.829277  1183A      0.829899  1184A      0.831245  
    1185A      0.832363  1186A      0.832523  1187A      0.833935  
    1188A      0.834443  1189A      0.835876  1190A      0.837788  
    1191A      0.839445  1192A      0.842335  1193A      0.843157  
    1194A      0.845614  1195A      0.848270  1196A      0.850823  
    1197A      0.853451  1198A      0.854999  1199A      0.855939  
    1200A      0.859163  1201A      0.859768  1202A      0.861204  
    1203A      0.862041  1204A      0.863543  1205A      0.863868  
    1206A      0.865678  1207A      0.870782  1208A      0.871625  
    1209A      0.873396  1210A      0.875339  1211A      0.877715  
    1212A      0.881046  1213A      0.882541  1214A      0.883609  
    1215A      0.887169  1216A      0.889082  1217A      0.891064  
    1218A      0.897553  1219A      0.898544  1220A      0.899283  
    1221A      0.902229  1222A      0.904092  1223A      0.907043  
    1224A      0.910775  1225A      0.911627  1226A      0.917315  
    1227A      0.918925  1228A      0.920411  1229A      0.921474  
    1230A      0.922090  1231A      0.922514  1232A      0.923245  
    1233A      0.923874  1234A      0.924609  1235A      0.925715  
    1236A      0.926425  1237A      0.926532  1238A      0.929230  
    1239A      0.930419  1240A      0.932259  1241A      0.932840  
    1242A      0.935734  1243A      0.936773  1244A      0.941673  
    1245A      0.942473  1246A      0.944677  1247A      0.946751  
    1248A      0.947579  1249A      0.948494  1250A      0.948767  
    1251A      0.949984  1252A      0.951081  1253A      0.952608  
    1254A      0.955296  1255A      0.956664  1256A      0.958580  
    1257A      0.959555  1258A      0.961985  1259A      0.964425  
    1260A      0.965158  1261A      0.966795  1262A      0.967255  
    1263A      0.968601  1264A      0.969306  1265A      0.970664  
    1266A      0.972557  1267A      0.975517  1268A      0.979330  
    1269A      0.980523  1270A      0.982374  1271A      0.983047  
    1272A      0.983358  1273A      0.987217  1274A      0.990212  
    1275A      0.993860  1276A      0.994295  1277A      0.996241  
    1278A      0.998838  1279A      1.000397  1280A      1.002065  
    1281A      1.002361  1282A      1.005349  1283A      1.006274  
    1284A      1.006960  1285A      1.008473  1286A      1.009527  
    1287A      1.012093  1288A      1.014388  1289A      1.015603  
    1290A      1.015873  1291A      1.017458  1292A      1.019066  
    1293A      1.019797  1294A      1.022627  1295A      1.024924  
    1296A      1.025385  1297A      1.028053  1298A      1.031334  
    1299A      1.032447  1300A      1.032926  1301A      1.032961  
    1302A      1.034315  1303A      1.035115  1304A      1.036532  
    1305A      1.038350  1306A      1.041929  1307A      1.043389  
    1308A      1.046515  1309A      1.047529  1310A      1.048213  
    1311A      1.049551  1312A      1.050584  1313A      1.052964  
    1314A      1.054834  1315A      1.055610  1316A      1.057292  
    1317A      1.058391  1318A      1.059037  1319A      1.059150  
    1320A      1.060535  1321A      1.061508  1322A      1.064765  
    1323A      1.065513  1324A      1.067520  1325A      1.068448  
    1326A      1.070849  1327A      1.071601  1328A      1.073049  
    1329A      1.074701  1330A      1.076217  1331A      1.076935  
    1332A      1.078515  1333A      1.080750  1334A      1.081470  
    1335A      1.085379  1336A      1.085770  1337A      1.087919  
    1338A      1.088600  1339A      1.090301  1340A      1.091595  
    1341A      1.092591  1342A      1.095609  1343A      1.097273  
    1344A      1.098411  1345A      1.099933  1346A      1.102443  
    1347A      1.102971  1348A      1.103599  1349A      1.105858  
    1350A      1.110665  1351A      1.112423  1352A      1.115226  
    1353A      1.115415  1354A      1.116269  1355A      1.118557  
    1356A      1.118965  1357A      1.120550  1358A      1.122594  
    1359A      1.123484  1360A      1.124843  1361A      1.127463  
    1362A      1.129687  1363A      1.129942  1364A      1.130398  
    1365A      1.134012  1366A      1.135695  1367A      1.137861  
    1368A      1.140325  1369A      1.141700  1370A      1.142529  
    1371A      1.143979  1372A      1.145295  1373A      1.146929  
    1374A      1.149025  1375A      1.151732  1376A      1.152332  
    1377A      1.153005  1378A      1.153945  1379A      1.154258  
    1380A      1.157008  1381A      1.160075  1382A      1.160827  
    1383A      1.161343  1384A      1.161933  1385A      1.164112  
    1386A      1.165990  1387A      1.168374  1388A      1.168640  
    1389A      1.169625  1390A      1.170808  1391A      1.172998  
    1392A      1.175767  1393A      1.177031  1394A      1.178783  
    1395A      1.180244  1396A      1.183870  1397A      1.185010  
    1398A      1.186308  1399A      1.187693  1400A      1.190170  
    1401A      1.192225  1402A      1.193466  1403A      1.194590  
    1404A      1.197354  1405A      1.198407  1406A      1.200883  
    1407A      1.201543  1408A      1.202322  1409A      1.203265  
    1410A      1.205785  1411A      1.209650  1412A      1.211793  
    1413A      1.214369  1414A      1.214547  1415A      1.215524  
    1416A      1.216306  1417A      1.217614  1418A      1.219157  
    1419A      1.221434  1420A      1.222196  1421A      1.223916  
    1422A      1.224590  1423A      1.226454  1424A      1.226703  
    1425A      1.227631  1426A      1.227883  1427A      1.230367  
    1428A      1.230674  1429A      1.232522  1430A      1.234481  
    1431A      1.235270  1432A      1.236196  1433A      1.237877  
    1434A      1.239148  1435A      1.240069  1436A      1.240701  
    1437A      1.242390  1438A      1.245417  1439A      1.248177  
    1440A      1.249904  1441A      1.250860  1442A      1.254331  
    1443A      1.255973  1444A      1.256414  1445A      1.257401  
    1446A      1.259222  1447A      1.260903  1448A      1.264281  
    1449A      1.265656  1450A      1.267076  1451A      1.267608  
    1452A      1.268240  1453A      1.269516  1454A      1.271259  
    1455A      1.272424  1456A      1.274279  1457A      1.275783  
    1458A      1.277024  1459A      1.278579  1460A      1.283187  
    1461A      1.286434  1462A      1.287161  1463A      1.289326  
    1464A      1.291421  1465A      1.294002  1466A      1.297098  
    1467A      1.298367  1468A      1.300383  1469A      1.301516  
    1470A      1.302761  1471A      1.304164  1472A      1.304839  
    1473A      1.306364  1474A      1.308493  1475A      1.311366  
    1476A      1.313585  1477A      1.316483  1478A      1.319064  
    1479A      1.322066  1480A      1.322565  1481A      1.324903  
    1482A      1.328100  1483A      1.328543  1484A      1.329794  
    1485A      1.332380  1486A      1.335114  1487A      1.337684  
    1488A      1.338515  1489A      1.340696  1490A      1.342510  
    1491A      1.343834  1492A      1.346219  1493A      1.349465  
    1494A      1.350761  1495A      1.351707  1496A      1.355711  
    1497A      1.358426  1498A      1.359949  1499A      1.364642  
    1500A      1.365235  1501A      1.370285  1502A      1.372070  
    1503A      1.374897  1504A      1.377061  1505A      1.380074  
    1506A      1.381756  1507A      1.385079  1508A      1.387155  
    1509A      1.388383  1510A      1.390009  1511A      1.391720  
    1512A      1.393009  1513A      1.394101  1514A      1.396008  
    1515A      1.398176  1516A      1.398836  1517A      1.400359  
    1518A      1.404976  1519A      1.406436  1520A      1.407906  
    1521A      1.408953  1522A      1.410395  1523A      1.411222  
    1524A      1.412970  1525A      1.414445  1526A      1.415534  
    1527A      1.416745  1528A      1.417399  1529A      1.418608  
    1530A      1.421079  1531A      1.422864  1532A      1.424507  
    1533A      1.425568  1534A      1.427129  1535A      1.427881  
    1536A      1.428500  1537A      1.429044  1538A      1.429966  
    1539A      1.430840  1540A      1.432219  1541A      1.433005  
    1542A      1.433778  1543A      1.436413  1544A      1.436683  
    1545A      1.437566  1546A      1.438196  1547A      1.439072  
    1548A      1.440404  1549A      1.441332  1550A      1.442131  
    1551A      1.443066  1552A      1.445089  1553A      1.448049  
    1554A      1.448360  1555A      1.448697  1556A      1.449221  
    1557A      1.452687  1558A      1.453149  1559A      1.453651  
    1560A      1.455090  1561A      1.457306  1562A      1.459656  
    1563A      1.460092  1564A      1.461376  1565A      1.461411  
    1566A      1.463837  1567A      1.464462  1568A      1.467194  
    1569A      1.468634  1570A      1.469545  1571A      1.470920  
    1572A      1.472430  1573A      1.473218  1574A      1.474633  
    1575A      1.476895  1576A      1.477698  1577A      1.481116  
    1578A      1.482541  1579A      1.484922  1580A      1.485880  
    1581A      1.486562  1582A      1.487831  1583A      1.489167  
    1584A      1.490342  1585A      1.490515  1586A      1.492644  
    1587A      1.495657  1588A      1.498251  1589A      1.501050  
    1590A      1.502812  1591A      1.503361  1592A      1.504136  
    1593A      1.505760  1594A      1.508855  1595A      1.510171  
    1596A      1.511254  1597A      1.513297  1598A      1.513656  
    1599A      1.516305  1600A      1.517503  1601A      1.518446  
    1602A      1.518880  1603A      1.520202  1604A      1.521047  
    1605A      1.525212  1606A      1.526563  1607A      1.530660  
    1608A      1.532402  1609A      1.533811  1610A      1.534959  
    1611A      1.537080  1612A      1.539328  1613A      1.541434  
    1614A      1.543391  1615A      1.548191  1616A      1.550469  
    1617A      1.551237  1618A      1.553529  1619A      1.554358  
    1620A      1.554955  1621A      1.556536  1622A      1.557585  
    1623A      1.560432  1624A      1.561618  1625A      1.563667  
    1626A      1.564372  1627A      1.565631  1628A      1.568063  
    1629A      1.569580  1630A      1.570683  1631A      1.571033  
    1632A      1.573025  1633A      1.574700  1634A      1.577661  
    1635A      1.578200  1636A      1.580275  1637A      1.581516  
    1638A      1.582498  1639A      1.584131  1640A      1.586267  
    1641A      1.587719  1642A      1.589920  1643A      1.591325  
    1644A      1.594354  1645A      1.595573  1646A      1.598477  
    1647A      1.600696  1648A      1.602409  1649A      1.605062  
    1650A      1.606601  1651A      1.607794  1652A      1.609508  
    1653A      1.613341  1654A      1.618582  1655A      1.619421  
    1656A      1.621080  1657A      1.623391  1658A      1.624225  
    1659A      1.625488  1660A      1.626461  1661A      1.630132  
    1662A      1.631047  1663A      1.632416  1664A      1.634044  
    1665A      1.637042  1666A      1.637133  1667A      1.638211  
    1668A      1.638726  1669A      1.643405  1670A      1.644066  
    1671A      1.644189  1672A      1.645445  1673A      1.646664  
    1674A      1.647386  1675A      1.648466  1676A      1.648940  
    1677A      1.649502  1678A      1.650528  1679A      1.653862  
    1680A      1.655020  1681A      1.659658  1682A      1.660796  
    1683A      1.662557  1684A      1.663125  1685A      1.664908  
    1686A      1.665447  1687A      1.668335  1688A      1.668849  
    1689A      1.671940  1690A      1.672834  1691A      1.674146  
    1692A      1.675170  1693A      1.677081  1694A      1.678318  
    1695A      1.680692  1696A      1.681640  1697A      1.683370  
    1698A      1.684792  1699A      1.686126  1700A      1.688178  
    1701A      1.688803  1702A      1.690882  1703A      1.691602  
    1704A      1.692259  1705A      1.693269  1706A      1.694620  
    1707A      1.694913  1708A      1.697361  1709A      1.697985  
    1710A      1.698911  1711A      1.701285  1712A      1.704470  
    1713A      1.705461  1714A      1.706752  1715A      1.707273  
    1716A      1.709097  1717A      1.709952  1718A      1.711327  
    1719A      1.712676  1720A      1.714062  1721A      1.715773  
    1722A      1.717195  1723A      1.717726  1724A      1.717830  
    1725A      1.719165  1726A      1.719941  1727A      1.720545  
    1728A      1.721847  1729A      1.722556  1730A      1.724424  
    1731A      1.726300  1732A      1.730206  1733A      1.730315  
    1734A      1.731535  1735A      1.732334  1736A      1.733016  
    1737A      1.735575  1738A      1.735956  1739A      1.738339  
    1740A      1.739242  1741A      1.740244  1742A      1.740704  
    1743A      1.741405  1744A      1.743729  1745A      1.747931  
    1746A      1.749325  1747A      1.750846  1748A      1.753857  
    1749A      1.754529  1750A      1.755209  1751A      1.758835  
    1752A      1.759889  1753A      1.760270  1754A      1.761137  
    1755A      1.762059  1756A      1.763800  1757A      1.766442  
    1758A      1.767462  1759A      1.768238  1760A      1.769006  
    1761A      1.769763  1762A      1.770496  1763A      1.771415  
    1764A      1.771714  1765A      1.773348  1766A      1.775290  
    1767A      1.775879  1768A      1.776643  1769A      1.777944  
    1770A      1.780188  1771A      1.781395  1772A      1.782576  
    1773A      1.785731  1774A      1.788061  1775A      1.789134  
    1776A      1.790267  1777A      1.792646  1778A      1.794111  
    1779A      1.796782  1780A      1.797090  1781A      1.797414  
[...]
	    C     0.9688333844   0.6680929074  -3.5356329971
	    C     1.6900860611  -0.4356279649  -2.9190476753
	    C     2.6870418395  -0.0759417573  -1.9356000257
	    C     3.1991407586  -1.0741292150  -1.0276194736
	    C     3.4703670824  -0.7037883234   0.3280260912
	    C     3.2443788946   0.6451828289   0.7358794925
	    C     2.6427562583   0.8864050121   2.0187938340
	    C     2.2807497922  -0.2354903214   2.8225096448
	    C     1.0062698081  -0.2285053313   3.4740480230
	    C     0.1537726777   0.9013393011   3.2945797933
	    C    -1.2413688755   0.6723723216   3.0355611141
	    C    -1.7193095607  -0.6705703874   2.9858434867
	    C    -2.6679333455  -1.0340725353   1.9739556528
	    C    -3.0966773404  -0.0348134298   1.0291064267
	    C    -3.3202892395  -0.3983178270  -0.3521779869
	    C    -3.0967392830  -1.7951356331  -0.6956777035
	    C    -2.4724806565  -2.2146360023  -1.9279334883
	    C    -1.2504437201  -0.3973665524  -3.3575012606
	    C    -1.8735169198  -1.3135422428  -2.7867037850
	    C    -0.0543193808  -2.2518200976  -3.2216513878
	    C     1.2615775222  -1.8464400934  -2.9290385844
	    C     2.1043705487  -2.8683094980  -2.2999182869
	    C     3.0739568143  -2.4749033314  -1.3303743415
	    C     3.6072875553  -3.4573576879  -0.4210461798
	    C     3.8313743275  -3.0759996197   0.9474129922
	    C     3.5499539860  -1.7295698368   1.3330942456
	    C     2.9293996732  -1.4930489235   2.5995949319
	    C     2.5737795936  -2.6135017423   3.4149557053
	    C     1.2911800261  -2.6072954495   4.0670403169
	    C     0.4334439806  -1.4790690524   3.8736296844
	    C    -0.9587369951  -1.7031192649   3.6335368302
	    C    -1.4494113796  -3.0445766076   3.6333484598
	    C    -2.4332213622  -3.4158808716   2.6517160488
	    C    -2.8577813426  -2.4292365543   1.6907355048
	    C    -3.0788167591  -2.8245173252   0.3322064787
	    C    -2.8468074257  -4.2177922168  -0.0004567342
	    C    -2.1936296419  -4.5478655095  -1.2391078028
	    C    -1.8443936620  -3.4845778884  -2.0983294824
	    C    -0.5636500992  -3.4818253776  -2.7783327167
	    C     0.3170924202  -4.5726753425  -2.5330947362
	    C     1.6990720464  -4.2551437176  -2.3130257629
	    C     2.5027982699  -5.2591974895  -1.6770336152
	    C     3.4834260689  -4.8515656640  -0.7170919936
	    C     3.9761181903  -5.8307891772   0.2176507742
	    C     4.1683864188  -5.4474838394   1.5754065342
	    C     3.8859000941  -4.0940075007   1.9520551479
	    C     3.2268023806  -3.8624767723   3.2041524974
	    C     2.8519532194  -4.9940354782   4.0036021694
	    C     1.5807812769  -4.9892045327   4.6457114448
	    C     0.7247646272  -3.8500795197   4.4741883144
	    C    -0.6771152866  -4.0698610046   4.2668969439
	    C    -1.1609810161  -5.4173385166   4.2753457492
	    C    -2.1539805522  -5.7879787695   3.3237449305
	    C    -2.6164404136  -4.8064879536   2.3809412614
	    C    -2.8196473976  -5.2177803326   1.0226586263
	    C    -2.5337596314  -6.5918938401   0.6795707562
	    C    -1.8491032679  -6.8765597229  -0.5363884235
	    C    -1.5070393532  -5.7889567998  -1.3945445014
	    C    -0.2269034283  -5.7994701575  -2.0493375668
	    C     0.6524931020  -6.8940451980  -1.7979956876
	    C     2.0434716767  -6.6243819789  -1.6358077914
	    C     2.8511603223  -7.6410442957  -1.0213958976
	    C     3.8573304247  -7.2322436672  -0.0757507576
	    C     4.3882790798  -8.1999910310   0.8321809336
	    C     4.5669653189  -7.8085194705   2.2156022249
	    C     4.2193733056  -6.4747714398   2.5814113954
	    C     3.5254092355  -6.2470613312   3.8238752536
	    C     3.1864324301  -7.3592538476   4.6534796634
	    C     1.8876456489  -7.3584417480   5.2991521197
	    C     1.0267561651  -6.2393604550   5.0791537529
	    C    -0.3864787069  -6.4550958680   4.9019544085
	    C    -0.9009220587  -7.7843360639   4.9625932017
	    C    -1.9330763439  -8.1554846224   4.0174135433
	    C    -2.3445276051  -7.1851946406   3.0580204319
	    C    -2.5335208422  -7.6077348577   1.6947094154
	    C    -2.3135607724  -8.9816519669   1.3472117938
	    C    -1.5706290494  -9.2498046528   0.1262291815
	    C    -1.1705439206  -8.1337000199  -0.6738595007
	    C     0.1169735298  -8.1385465813  -1.3216808760
	    C     0.9855366686  -9.2560260964  -1.1570898298
	    C     2.4061061292  -8.9996817067  -1.0174526265
	    C     3.3031610259  -9.9679737608  -0.4549350011
	    C     4.2742926509  -9.5775955732   0.4446488901
	    C     4.6327246935  -8.7727162671   3.2791683275
	    C     3.9550852070  -8.5566453107   4.4621865077
	    C     1.2687318417  -8.5586954681   5.7851893925
	    C    -0.0874190074  -8.7648189283   5.6238014794
	    C    -2.2763043823  -9.5143571432   3.7194056807
	    C    -2.4889597675  -9.9453036512   2.4198283624
	    C    -0.8700934593 -10.4801717055  -0.1293382415
	    C     0.3690826557 -10.4808245600  -0.7420705122
	    H    -1.8956571981 -12.0392958394   2.1640139042
	    H    -3.4485080773 -11.7895690994   2.9816320810
	    H    -3.3318946038 -11.5592570851   1.2197791364
	    H     0.5980457618  10.0569020314  -5.8007479536
	    H     2.3400296780  10.5670423966  -4.1650187915
	    H     2.5740536620  11.0830623289  -2.0198555102
	    H     1.4059407758  11.4471091753   0.0889508445
	    H    -0.5677516174  11.4650852917   1.1247182555
	    H    -2.9696258478  11.1330263955   0.8643292768
	    H    -4.5797655407  10.6339331447  -0.5767199015
	    H    -4.9130501856  10.1153100907  -2.9405432851
	    H    -3.7709946114   9.8777379956  -4.8336464220
	    H    -1.6096456666   9.8542380391  -5.9553983064
	    H     3.1257592345 -11.0358504227  -0.6158468703
	    H     4.8445396319 -10.3448761913   0.9771065813
	    H     5.0883110176  -9.7515503405   3.1014139258
	    H     3.8933793834  -9.3688388909   5.1930801423
	    H     1.8888162275  -9.3830017288   6.1505434818
	    H    -0.5055735417  -9.7482123498   5.8597529791
	    H    -2.2661117184 -10.2641898882   4.5192749022
	    H    -1.2435464072 -11.4206779642   0.2763356453
	    H     0.9330166652 -11.4179259548  -0.7817096703
	Saving final (previous) structure.
			--------------------------
			 OPTKING Finished Execution 
			--------------------------

    Final optimized geometry and variables:
    Molecular point group: c1
    Full point group: C1

    Geometry (in Angstrom), charge = 0, multiplicity = 1:

    C           -2.802489470315   -11.406116399180     2.173807066199
    C            0.992753283382     9.250376222465    -5.175103033175
    C            1.976763546435     9.538506126906    -4.251927207877
    C            2.367390878152     8.554155425584    -3.281963012923
    C            2.556565187521     8.890101052682    -1.884249100290
    C            2.349117280036    10.220777346223    -1.384949132634
    C            1.686514181766    10.427020273043    -0.190891344001
    C            1.204039932684     9.314633769215     0.576890377774
    C           -0.082534402065     9.325511881398     1.246312471537
    C           -0.972475952524    10.450653118721     1.194056613062
    C           -2.332317415286    10.262755452971     1.047909513979
    C           -2.877216316183     8.938189353832     0.931595991139
    C           -3.911148302066     8.613070484849    -0.029846323177
    C           -4.458780272683     9.600697908170    -0.916148318018
    C           -4.646522832983     9.307808577164    -2.251637811501
    C           -4.303849221496     8.011980698328    -2.764182081430
    C           -3.605788853649     7.842270599029    -4.024841635488
    C           -3.188031187211     8.951683439402    -4.834050218848
    C           -1.961387786551     8.938405658557    -5.470792753376
    C           -1.077585765416     7.815457864381    -5.334126011667
    C            0.357056564661     7.963561529531    -5.178971158674
    C            1.088920471634     6.887259043880    -4.585642483202
    C            2.111384666896     7.189415498516    -3.616010011417
    C            2.524751350945     6.142060137622    -2.722210124932
    C            2.728990462881     6.475921570852    -1.352693043645
    C            2.498586280593     7.831895781787    -0.930568551821
    C            1.818915727530     8.050754062388     0.321007775157
    C            1.436894907098     6.905008613963     1.093687069934
    C            0.172277123614     6.915060669722     1.748262979341
    C           -0.663353635667     8.071637076921     1.608118206163
    C           -2.080672640413     7.870893393281     1.441569521027
    C           -2.576134790609     6.521011227129     1.390712985439
    C           -3.579279352856     6.197403864242     0.433392711375
    C           -4.055297208119     7.247033936548    -0.424836123037
    C           -4.261159549697     6.940976916685    -1.817220879250
    C           -4.002605619557     5.599598308135    -2.261859371774
    C           -3.344508925987     5.436178785699    -3.516393604571
    C           -2.948299659090     6.599381999356    -4.259050389266
    C           -1.668024449224     6.586083346683    -4.920651377083
    C           -0.850794236437     5.411014677774    -4.799390377028
    C            0.555346301091     5.554041417439    -4.613711654164
    C            1.309837106386     4.457709301584    -4.053594058748
    C            2.315009091676     4.763291926420    -3.077066366256
    C            2.732180739083     3.725864938368    -2.186877894630
    C            2.964481052718     4.072658890793    -0.810232884823
    C            2.738256692310     5.420214312269    -0.385109338897
    C            2.091388212533     5.647148828772     0.874395030339
    C            1.723329228090     4.523141338611     1.668887482649
    C            0.444666261080     4.532342255550     2.328656502649
    C           -0.401889603430     5.666424450548     2.161561917298
    C           -1.806331491676     5.456666668961     1.963971166708
    C           -2.300015479062     4.114376134694     1.906931261417
    C           -3.291279961514     3.776843065311     0.921157438457
    C           -3.764081110595     4.818009526802     0.060933568405
    C           -3.994212340536     4.510451045628    -1.317963583529
    C           -3.755723281855     3.171706968337    -1.776074840349
    C           -3.153951109499     3.026897730027    -3.070973716828
    C           -2.740180412780     4.176358627454    -3.807078110290
    C           -1.457446804401     4.165883158476    -4.458272666510
    C           -0.631833292230     3.007473602852    -4.345481641728
    C            0.782054102379     3.128739570602    -4.106971991850
    C            1.499745505823     2.022305219278    -3.501890562310
    C            2.489574315637     2.343730467800    -2.518407034844
    C            2.912445678177     1.310411887616    -1.614352978109
    C            3.186884965803     1.670603681910    -0.253970652888
    C            2.975814478410     3.028461526332     0.164639148408
    C            2.360518251402     3.264583435038     1.434066282600
    C            1.997247153376     2.138816085697     2.241646952710
    C            0.724083704559     2.146770337418     2.895652994965
    C           -0.131454690254     3.281625973955     2.716041045093
    C           -1.524722691427     3.060591203143     2.481328550655
    C           -2.000990051261     1.705404542463     2.407999740531
    C           -2.950858991140     1.353199561307     1.396990178238
    C           -3.430688388374     2.396780272936     0.530547966959
    C           -3.670301584919     2.075438260489    -0.838565984760
    C           -3.394769197814     0.715919734254    -1.314540193278
    C           -2.905304884919     0.631428989907    -2.630468913852
    C           -2.547117424246     1.773125640656    -3.362502888581
    C           -1.249078220855     1.785166318010    -4.007272880437
    C           -0.444194018981     0.621439884142    -3.825558551965
    C            0.968833384373     0.668092907419    -3.535632997098
    C            1.690086061091    -0.435627964938    -2.919047675257
    C            2.687041839500    -0.075941757325    -1.935600025747
    C            3.199140758630    -1.074129215017    -1.027619473636
    C            3.470367082353    -0.703788323354     0.328026091170
    C            3.244378894637     0.645182828876     0.735879492535
    C            2.642756258306     0.886405012078     2.018793833993
    C            2.280749792221    -0.235490321415     2.822509644808
    C            1.006269808095    -0.228505331257     3.474048022977
    C            0.153772677729     0.901339301135     3.294579793295
    C           -1.241368875489     0.672372321566     3.035561114061
    C           -1.719309560679    -0.670570387353     2.985843486723
    C           -2.667933345486    -1.034072535340     1.973955652790
    C           -3.096677340442    -0.034813429788     1.029106426715
    C           -3.320289239474    -0.398317827016    -0.352177986931
    C           -3.096739282954    -1.795135633143    -0.695677703524
    C           -2.472480656455    -2.214636002335    -1.927933488350
    C           -1.250443720058    -0.397366552442    -3.357501260611
    C           -1.873516919830    -1.313542242814    -2.786703785032
    C           -0.054319380808    -2.251820097582    -3.221651387776
    C            1.261577522225    -1.846440093385    -2.929038584368
    C            2.104370548691    -2.868309498003    -2.299918286945
    C            3.073956814320    -2.474903331373    -1.330374341489
    C            3.607287555287    -3.457357687936    -0.421046179814
    C            3.831374327480    -3.075999619655     0.947412992244
    C            3.549953986019    -1.729569836821     1.333094245639
    C            2.929399673239    -1.493048923475     2.599594931948
    C            2.573779593563    -2.613501742292     3.414955705258
    C            1.291180026146    -2.607295449498     4.067040316866
    C            0.433443980639    -1.479069052367     3.873629684360
    C           -0.958736995068    -1.703119264922     3.633536830246
    C           -1.449411379570    -3.044576607598     3.633348459771
    C           -2.433221362204    -3.415880871614     2.651716048840
    C           -2.857781342610    -2.429236554313     1.690735504750
    C           -3.078816759127    -2.824517325166     0.332206478716
    C           -2.846807425698    -4.217792216774    -0.000456734171
    C           -2.193629641939    -4.547865509474    -1.239107802841
    C           -1.844393661952    -3.484577888368    -2.098329482411
    C           -0.563650099172    -3.481825377601    -2.778332716702
    C            0.317092420229    -4.572675342495    -2.533094736241
    C            1.699072046373    -4.255143717553    -2.313025762885
    C            2.502798269931    -5.259197489497    -1.677033615241
    C            3.483426068906    -4.851565663971    -0.717091993565
    C            3.976118190349    -5.830789177210     0.217650774219
    C            4.168386418776    -5.447483839362     1.575406534192
    C            3.885900094091    -4.094007500719     1.952055147852
    C            3.226802380588    -3.862476772306     3.204152497402
    C            2.851953219411    -4.994035478201     4.003602169377
    C            1.580781276932    -4.989204532709     4.645711444751
    C            0.724764627239    -3.850079519744     4.474188314416
    C           -0.677115286573    -4.069861004628     4.266896943887
    C           -1.160981016072    -5.417338516600     4.275345749204
    C           -2.153980552248    -5.787978769534     3.323744930477
    C           -2.616440413613    -4.806487953551     2.380941261355
    C           -2.819647397624    -5.217780332650     1.022658626348
    C           -2.533759631382    -6.591893840101     0.679570756214
    C           -1.849103267854    -6.876559722869    -0.536388423466
    C           -1.507039353198    -5.788956799833    -1.394544501390
    C           -0.226903428281    -5.799470157534    -2.049337566837
    C            0.652493102000    -6.894045197950    -1.797995687584
    C            2.043471676653    -6.624381978934    -1.635807791399
    C            2.851160322270    -7.641044295681    -1.021395897646
    C            3.857330424688    -7.232243667213    -0.075750757639
    C            4.388279079798    -8.199991030986     0.832180933635
    C            4.566965318945    -7.808519470501     2.215602224936
    C            4.219373305648    -6.474771439767     2.581411395449
    C            3.525409235472    -6.247061331191     3.823875253594
    C            3.186432430078    -7.359253847568     4.653479663432
    C            1.887645648904    -7.358441747963     5.299152119697
    C            1.026756165088    -6.239360455035     5.079153752932
    C           -0.386478706921    -6.455095867967     4.901954408463
    C           -0.900922058717    -7.784336063906     4.962593201694
    C           -1.933076343852    -8.155484622402     4.017413543336
    C           -2.344527605086    -7.185194640636     3.058020431927
    C           -2.533520842223    -7.607734857683     1.694709415432
    C           -2.313560772403    -8.981651966888     1.347211793791
    C           -1.570629049422    -9.249804652833     0.126229181463
    C           -1.170543920603    -8.133700019940    -0.673859500693
    C            0.116973529834    -8.138546581293    -1.321680876001
    C            0.985536668556    -9.256026096413    -1.157089829814
    C            2.406106129219    -8.999681706690    -1.017452626481
    C            3.303161025852    -9.967973760771    -0.454935001119
    C            4.274292650907    -9.577595573202     0.444648890090
    C            4.632724693470    -8.772716267123     3.279168327495
    C            3.955085206967    -8.556645310688     4.462186507705
    C            1.268731841677    -8.558695468067     5.785189392513
    C           -0.087419007398    -8.764818928264     5.623801479447
    C           -2.276304382280    -9.514357143230     3.719405680661
    C           -2.488959767466    -9.945303651243     2.419828362398
    C           -0.870093459330   -10.480171705520    -0.129338241469
    C            0.369082655729   -10.480824560037    -0.742070512221
    H           -1.895657198088   -12.039295839426     2.164013904249
    H           -3.448508077321   -11.789569099353     2.981632081028
    H           -3.331894603817   -11.559257085078     1.219779136352
    H            0.598045761811    10.056902031418    -5.800747953621
    H            2.340029677991    10.567042396602    -4.165018791491
    H            2.574053662040    11.083062328924    -2.019855510171
    H            1.405940775817    11.447109175304     0.088950844541
    H           -0.567751617368    11.465085291687     1.124718255463
    H           -2.969625847808    11.133026395501     0.864329276818
    H           -4.579765540704    10.633933144734    -0.576719901476
    H           -4.913050185632    10.115310090691    -2.940543285127
    H           -3.770994611420     9.877737995572    -4.833646422021
    H           -1.609645666646     9.854238039111    -5.955398306355
    H            3.125759234546   -11.035850422730    -0.615846870264
    H            4.844539631872   -10.344876191333     0.977106581283
    H            5.088311017584    -9.751550340462     3.101413925755
    H            3.893379383390    -9.368838890897     5.193080142270
    H            1.888816227499    -9.383001728835     6.150543481830
    H           -0.505573541734    -9.748212349753     5.859752979076
    H           -2.266111718361   -10.264189888165     4.519274902151
    H           -1.243546407185   -11.420677964221     0.276335645284
    H            0.933016665201   -11.417925954820    -0.781709670266

	Cleaning optimization helper files.

*** Psi4 exiting successfully. Buy a developer a beer!
