
    -----------------------------------------------------------------------
          Psi4: An Open-Source Ab Initio Electronic Structure Package
                               Psi4 1.4rc2.dev99 

                         Git: Rev {master} c4c438c 


    D. G. A. Smith, L. A. Burns, A. C. Simmonett, R. M. Parrish,
    M. C. Schieber, R. Galvelis, P. Kraus, H. Kruse, R. Di Remigio,
    A. Alenaizan, A. M. James, S. Lehtola, J. P. Misiewicz, M. Scheurer,
    R. A. Shaw, J. B. Schriber, Y. Xie, Z. L. Glick, D. A. Sirianni,
    J. S. O'Brien, J. M. Waldrop, A. Kumar, E. G. Hohenstein,
    B. P. Pritchard, B. R. Brooks, H. F. Schaefer III, A. Yu. Sokolov,
    K. Patkowski, A. E. DePrince III, U. Bozkaya, R. A. King,
    F. A. Evangelista, J. M. Turney, T. D. Crawford, C. D. Sherrill,
    J. Chem. Phys. 152(18) 184108 (2020). https://doi.org/10.1063/5.0006002

                            Additional Code Authors
    E. T. Seidl, C. L. Janssen, E. F. Valeev, M. L. Leininger,
    J. F. Gonthier, R. M. Richard, H. R. McAlexander, M. Saitow, X. Wang,
    P. Verma, and M. H. Lechner

             Previous Authors, Complete List of Code Contributors,
                       and Citations for Specific Modules
    https://github.com/psi4/psi4/blob/master/codemeta.json
    https://github.com/psi4/psi4/graphs/contributors
    http://psicode.org/psi4manual/master/introduction.html#citing-psifour

    -----------------------------------------------------------------------


    Psi4 started on: Sunday, 20 June 2021 08:51PM

    Process ID: 3878170
    Host:       skylm002.palmetto.clemson.edu
    PSIDATADIR: /home/adamcronin/.conda/envs/p4env/share/psi4
    Memory:     500.0 MiB
    Threads:    1
    
  ==> Input File <==

--------------------------------------------------------------------------
molecule{
C    -3.3105646959 -11.3062760523   1.8329693333
C     1.6572317300   9.2185085700  -5.0251244672
C     2.5770517256   9.4751254747  -4.0327489439
C     2.8567878065   8.4778523035  -3.0338859908
C     2.9547982348   8.8108742375  -1.6298778909
C     2.7530395142  10.1507281891  -1.1470409656
C     2.0134007450  10.3791325926  -0.0052006732
C     1.4452034191   9.2809462451   0.7272517689
C     0.1141028947   9.3270219389   1.2935405904
C    -0.7404323190  10.4759826661   1.1727467657
C    -2.0875702575  10.3223992362   0.9197079505
C    -2.6551248756   9.0103915385   0.7580811653
C    -3.6212131213   8.7134157191  -0.2754713129
C    -4.0842996045   9.7212137779  -1.1921989760
C    -4.1819513232   9.4394748410  -2.5367793077
C    -3.8347448618   8.1343397673  -3.0316573190
C    -3.0541671990   7.9520605874  -4.2340186505
C    -2.5422591203   9.0539474177  -5.0044717897
C    -1.2738904685   9.0040885203  -5.5446684463
C    -0.4369002032   7.8505584537  -5.3447778686
C     0.9793990736   7.9513839838  -5.0773250777
C     1.6296857492   6.8482765298  -4.4343477906
C     2.5821853919   7.1207756037  -3.3867152324
C     2.8900584060   6.0644461986  -2.4627021589
C     3.0168702789   6.3951550828  -1.0837063432
C     2.8029540901   7.7577348442  -0.6791431560
C     2.0456402127   8.0001794394   0.5220671342
C     1.5784944446   6.8689703530   1.2684482882
C     0.2673895320   6.9135775620   1.8217423051
C    -0.5255845420   8.0886106983   1.6116356249
C    -1.9283336020   7.9231082016   1.3284879871
C    -2.4490516252   6.5863707475   1.2308580970
C    -3.3806106307   6.2890076303   0.1959588044
C    -3.7734207154   7.3527387984  -0.6861131317
C    -3.8956153650   7.0555792277  -2.0912600423
C    -3.6483090177   5.7111112626  -2.5268952400
C    -2.9138359305   5.5349004829  -3.7349494451
C    -2.4241544712   6.6871772527  -4.4336969629
C    -1.0972865100   6.6358240979  -4.9937773345
C    -0.3302331753   5.4358179974  -4.8157678945
C     1.0582187139   5.5348887429  -4.5100800206
C     1.7223775203   4.4132877927  -3.8787012873
C     2.6523823136   4.6920025679  -2.8277828926
C     2.9697249330   3.6438024813  -1.9076670128
C     3.1370498219   3.9857807533  -0.5215223794
C     2.9296516000   5.3424025917  -0.1142926116
C     2.2112186195   5.5916420250   1.0983252956
C     1.7581633995   4.4797099044   1.8711822491
C     0.4342733033   4.5245775708   2.4276015739
C    -0.3693726377   5.6791735677   2.1854409547
C    -1.7527397047   5.5035289481   1.8622757689
C    -2.2701210113   4.1721284077   1.7586865997
C    -3.1786874358   3.8603914135   0.6881964801
C    -3.5671288744   4.9148609528  -0.1980482719
C    -3.7257306938   4.6139676548  -1.5869638299
C    -3.5004389339   3.2713792127  -2.0375579154
C    -2.8483193233   3.1113962386  -3.3080510674
C    -2.3287878241   4.2550961993  -3.9948420389
C    -1.0044421659   4.2073990588  -4.5363297100
C    -0.2243633561   3.0164789321  -4.3576326024
C     1.1577869654   3.1021943863  -3.9740574991
C     1.7430611012   1.9779230920  -3.2785717035
C     2.6884808703   2.2728836485  -2.2466749646
C     3.0317200306   1.2346523032  -1.3166969848
C     3.2472822605   1.5830148965   0.0520493230
C     3.0598493934   2.9468485849   0.4571725260
C     2.3760691149   3.2027154389   1.6865789972
C     1.9232503163   2.0858984409   2.4640074190
C     0.6054446948   2.1304038105   3.0157119079
C    -0.2023382879   3.2892547057   2.7678382612
C    -1.5737591545   3.1047999709   2.4049908661
C    -2.0713276831   1.7637571735   2.2842550505
C    -2.9262046532   1.4401409382   1.1864543591
C    -3.3118353542   2.4854633001   0.2788323968
C    -3.4621676870   2.1690404320  -1.1074673033
C    -3.1315942299   0.8063417812  -1.5538172590
C    -2.5505965652   0.6902069823  -2.8304380100
C    -2.2407151566   1.8632950915  -3.5588065036
C    -0.9082196874   1.8372947482  -4.0502571176
C    -0.2392184013   0.6070803736  -3.6818564364
C     1.1553139303   0.6389602054  -3.3350462890
C     1.8458405741  -0.4639070723  -2.6973862468
C     2.7868337918  -0.1398704917  -1.6569631030
C     3.2160429755  -1.1556075211  -0.7294314062
C     3.4224240975  -0.8034515098   0.6395747575
C     3.2133883769   0.5522115178   1.0422947526
C     2.5425723290   0.8091283571   2.2811021359
C     2.0880388392  -0.3093610288   3.0507818819
C     0.7713442099  -0.2640689625   3.6046061564
C    -0.0309271519   0.8953439698   3.3579684435
C    -1.3981011673   0.7094501984   2.9766146906
C    -1.9046134426  -0.6225386753   2.8683172791
C    -2.7549092266  -0.9497810141   1.7693506129
C    -3.0631571767   0.0613050227   0.7969994802
C    -3.1649853698  -0.2833063967  -0.5927904223
C    -2.9668976595  -1.6711974129  -0.9666220931
C    -2.5352988017  -2.1106997055  -2.2480243258
C    -2.0735014814  -1.4520977038  -3.4601542907
C    -1.2008265895  -0.4021807827  -3.5692912401
C     0.1303839555  -2.1778065919  -3.2869727803
C     1.3929218382  -1.8469992952  -2.7838661470
C     2.1463220203  -2.8920006762  -2.0950039305
C     3.0586192260  -2.5441305965  -1.0584121753
C     3.4946634046  -3.5527399348  -0.1310228089
C     3.6509949396  -3.1925957992   1.2501106758
C     3.4025308037  -1.8388744241   1.6365235334
C     2.7095615805  -1.5885052765   2.8630809139
C     2.2546911121  -2.7068828751   3.6334581408
C     0.9291060559  -2.6622801609   4.1856600591
C     0.1289799821  -1.5012588116   3.9422445694
C    -1.2414765768  -1.6816545882   3.5745630559
C    -1.7695499551  -3.0075250584   3.5036080313
C    -2.6616350501  -3.3370326516   2.4267858380
C    -2.9510438656  -2.3312921686   1.4410982348
C    -3.0703803911  -2.7001829437   0.0666533241
C    -2.9326999986  -4.0978906279  -0.2576616523
C    -2.2428841821  -4.4381015114  -1.4687187127
C    -1.8703700857  -3.3954104449  -2.3413682268
C    -0.5045678185  -3.3871034111  -2.8648465660
C     0.3294302012  -4.5007451474  -2.5277258258
C     1.6974204898  -4.2519726468  -2.1706254122
C     2.4207492851  -5.2928898839  -1.4962188365
C     3.3400310427  -4.9367276906  -0.4612386969
C     3.7357732227  -5.9457892392   0.4876141687
C     3.8542763698  -5.5862338234   1.8606214417
C     3.5979422845  -4.2265102233   2.2409848845
C     2.8738977458  -3.9813152346   3.4499186559
C     2.4028350518  -5.1094634944   4.2046349472
C     1.0875331688  -5.0662421767   4.7486975573
C     0.2876780994  -3.8952011266   4.5211967006
C    -1.0930873371  -4.0667483023   4.1895536685
C    -1.6214387808  -5.3988611072   4.1331253035
C    -2.5392260368  -5.7252577490   3.0942919372
C    -2.8780077494  -4.7181177113   2.1246294427
C    -3.0159781457  -5.1055673084   0.7568118376
C    -2.7762906741  -6.4916028060   0.4182804522
C    -2.0226031692  -6.7871028319  -0.7521370897
C    -1.5790149943  -5.7019225976  -1.5696312361
C    -0.2692613154  -5.7391509965  -2.1265618051
C     0.5567735400  -6.8700298948  -1.8316874173
C     1.9330308197  -6.6486458380  -1.5353465586
C     2.6569080675  -7.6962469639  -0.8742831069
C     3.5924322973  -7.3359512269   0.1603918258
C     4.0172383637  -8.3353261799   1.0915672035
C     4.1146220771  -7.9702682484   2.4854826164
C     3.8001443263  -6.6263342589   2.8506769125
C     3.0372414155  -6.3853280386   4.0489210294
C     2.5943697908  -7.4975596260   4.8315303319
C     1.2574603807  -7.4555483990   5.3797145207
C     0.4565203035  -6.3016005483   5.1127156286
C    -0.9414955374  -6.4677467380   4.8098853556
C    -1.5015924307  -7.7822380579   4.8006500217
C    -2.4621583775  -8.1047444206   3.7739742627
C    -2.7655288504  -7.1098925019   2.7984332461
C    -2.8763180287  -7.5117627621   1.4196152665
C    -2.6712488910  -8.8921447902   1.0731172311
C    -1.8681121998  -9.1732048712  -0.0968390541
C    -1.3793514561  -8.0624667428  -0.8587753603
C    -0.0517818160  -8.1015454582  -1.4160245363
C     0.7679335104  -9.2488496096  -1.1908673025
C     2.1722810542  -9.0419023616  -0.9301633708
C     2.9917905283 -10.0495651212  -0.3117382670
C     3.8956670269  -9.7059550690   0.6690623593
C     4.0726343365  -8.9518302783   3.5374802690
C     3.3293818198  -8.7240290532   4.6756726270
C     0.5591349697  -8.6413740727   5.7977362579
C    -0.7822676286  -8.7987744186   5.5205949368
C    -2.8322607906  -9.4509932507   3.4348862062
C    -2.9602973954  -9.8619920662   2.1212418308
C    -1.1978422285 -10.4288913155  -0.3313272376
C     0.0788269367 -10.4634342907  -0.8522344941
H    -2.4238979703 -11.9673620275   1.8396079118
H    -3.9962064830 -11.6865074688   2.6089794963
H    -3.8092424046 -11.4219556577   0.8568643330
H     1.3423367181  10.0332191972  -5.6845859143
H     2.9762242696  10.4879439895  -3.9223142820
H     3.0522563994  11.0036499289  -1.7635693574
H     1.7444148041  11.4072838059   0.2558391544
H    -0.3051846642  11.4795125955   1.1391367568
H    -2.6878923123  11.2082963856   0.6917977569
H    -4.2138762990  10.7530337663  -0.8517036783
H    -4.3865389370  10.2530311913  -3.2396893081
H    -3.0989158495   9.9951470300  -5.0470382249
H    -0.8579196760   9.9071334450  -6.0016683613
H     2.8014126225 -11.1078806228  -0.5157101402
H     4.4070873713 -10.4970369593   1.2257473997
H     4.5059929736  -9.9435068393   3.3760631130
H     3.1890821170  -9.5396827674   5.3915918606
H     1.1189916945  -9.4870734477   6.2086876514
H    -1.2559998351  -9.7661179043   5.7136430488
H    -2.9216770537 -10.2035397443   4.2271972965
H    -1.6406757161 -11.3627433203   0.0160313040
H     0.6111691741 -11.4192783065  -0.8798370702
H    -2.1220389619  -2.1191500442  -4.3473439512
}
memory 65 GB
set basis 6-31G(d)
set reference uhf
set opt_type ts
optimize('pbe')
--------------------------------------------------------------------------

  Memory set to  60.536 GiB by Python driver.

Scratch directory: /scratch1/adamcronin/
gradient() will perform analytic gradient computation.

*** tstart() called on skylm002.palmetto.clemson.edu
*** at Sun Jun 20 20:51:59 2021

   => Loading Basis Set <=

    Name: 6-31G(D)
    Role: ORBITAL
    Keyword: BASIS
    atoms 1-171   entry C          line   111 file /home/adamcronin/.conda/envs/p4env/share/psi4/basis/6-31g_d_.gbs 
    atoms 172-194 entry H          line    44 file /home/adamcronin/.conda/envs/p4env/share/psi4/basis/6-31g_d_.gbs 


         ---------------------------------------------------------
                                   SCF
               by Justin Turney, Rob Parrish, Andy Simmonett
                          and Daniel G. A. Smith
                              UKS Reference
                        1 Threads,  61988 MiB Core
         ---------------------------------------------------------

  ==> Geometry <==

    Molecular point group: c1
    Full point group: C1

    Geometry (in Angstrom), charge = 0, multiplicity = 2:

       Center              X                  Y                   Z               Mass       
    ------------   -----------------  -----------------  -----------------  -----------------
         C           -3.310869570663   -11.306501520060     1.832288442276    12.000000000000
         C            1.656926855237     9.218283102240    -5.025805358224    12.000000000000
         C            2.576746850837     9.474900006940    -4.033429834924    12.000000000000
         C            2.856482931737     8.477626835740    -3.034566881824    12.000000000000
         C            2.954493360037     8.810648769740    -1.630558781924    12.000000000000
         C            2.752734639437    10.150502721340    -1.147721856624    12.000000000000
         C            2.013095870237    10.378907124840    -0.005881564224    12.000000000000
         C            1.444898544337     9.280720777340     0.726570877876    12.000000000000
         C            0.113798019937     9.326796471140     1.292859699376    12.000000000000
         C           -0.740737193763    10.475757198340     1.172065874676    12.000000000000
         C           -2.087875132263    10.322173768440     0.919027059476    12.000000000000
         C           -2.655429750363     9.010166070740     0.757400274276    12.000000000000
         C           -3.621517996063     8.713190251340    -0.276152203924    12.000000000000
         C           -4.084604479263     9.720988310140    -1.192879867024    12.000000000000
         C           -4.182256197963     9.439249373240    -2.537460198724    12.000000000000
         C           -3.835049736563     8.134114299540    -3.032338210024    12.000000000000
         C           -3.054472073763     7.951835119640    -4.234699541524    12.000000000000
         C           -2.542563995063     9.053721949940    -5.005152680724    12.000000000000
         C           -1.274195343263     9.003863052540    -5.545349337324    12.000000000000
         C           -0.437205077963     7.850332985940    -5.345458759624    12.000000000000
         C            0.979094198837     7.951158516040    -5.078005968724    12.000000000000
         C            1.629380874437     6.848051062040    -4.435028681624    12.000000000000
         C            2.581880517137     7.120550135940    -3.387396123424    12.000000000000
         C            2.889753531237     6.064220730840    -2.463383049924    12.000000000000
         C            3.016565404137     6.394929615040    -1.084387234224    12.000000000000
         C            2.802649215337     7.757509376440    -0.679824047024    12.000000000000
         C            2.045335337937     7.999953971640     0.521386243176    12.000000000000
         C            1.578189569837     6.868744885240     1.267767397176    12.000000000000
         C            0.267084657237     6.913352094240     1.821061414076    12.000000000000
         C           -0.525889416763     8.088385230540     1.610954733876    12.000000000000
         C           -1.928638476763     7.922882733840     1.327807096076    12.000000000000
         C           -2.449356499963     6.586145279740     1.230177205976    12.000000000000
         C           -3.380915505463     6.288782162540     0.195277913376    12.000000000000
         C           -3.773725590163     7.352513330640    -0.686794022724    12.000000000000
         C           -3.895920239763     7.055353759940    -2.091940933324    12.000000000000
         C           -3.648613892463     5.710885794840    -2.527576131024    12.000000000000
         C           -2.914140805263     5.534675015140    -3.735630336124    12.000000000000
         C           -2.424459345963     6.686951784940    -4.434377853924    12.000000000000
         C           -1.097591384763     6.635598630140    -4.994458225524    12.000000000000
         C           -0.330538050063     5.435592529640    -4.816448785524    12.000000000000
         C            1.057913839137     5.534663275140    -4.510760911624    12.000000000000
         C            1.722072645537     4.413062324940    -3.879382178324    12.000000000000
         C            2.652077438837     4.691777100140    -2.828463783624    12.000000000000
         C            2.969420058237     3.643577013540    -1.908347903824    12.000000000000
         C            3.136744947137     3.985555285540    -0.522203270424    12.000000000000
         C            2.929346725237     5.342177123940    -0.114973502624    12.000000000000
         C            2.210913744737     5.591416557240     1.097644404576    12.000000000000
         C            1.757858524737     4.479484436640     1.870501358076    12.000000000000
         C            0.433968428537     4.524352103040     2.426920682876    12.000000000000
         C           -0.369677512463     5.678948099940     2.184760063676    12.000000000000
         C           -1.753044579463     5.503303480340     1.861594877876    12.000000000000
         C           -2.270425886063     4.171902939940     1.758005708676    12.000000000000
         C           -3.178992310563     3.860165945740     0.687515589076    12.000000000000
         C           -3.567433749163     4.914635485040    -0.198729162924    12.000000000000
         C           -3.726035568563     4.613742187040    -1.587644720924    12.000000000000
         C           -3.500743808663     3.271153744940    -2.038238806424    12.000000000000
         C           -2.848624198063     3.111170770840    -3.308731958424    12.000000000000
         C           -2.329092698863     4.254870731540    -3.995522929924    12.000000000000
         C           -1.004747040663     4.207173591040    -4.537010601024    12.000000000000
         C           -0.224668230863     3.016253464340    -4.358313493424    12.000000000000
         C            1.157482090637     3.101968918540    -3.974738390124    12.000000000000
         C            1.742756226437     1.977697624240    -3.279252594524    12.000000000000
         C            2.688175995537     2.272658180740    -2.247355855624    12.000000000000
         C            3.031415155837     1.234426835440    -1.317377875824    12.000000000000
         C            3.246977385737     1.582789428740     0.051368431976    12.000000000000
         C            3.059544518637     2.946623117140     0.456491634976    12.000000000000
         C            2.375764240137     3.202489971140     1.685898106176    12.000000000000
         C            1.922945441537     2.085672973140     2.463326527976    12.000000000000
         C            0.605139820037     2.130178342740     3.015031016876    12.000000000000
         C           -0.202643162663     3.289029237940     2.767157370176    12.000000000000
         C           -1.574064029263     3.104574503140     2.404309975076    12.000000000000
         C           -2.071632557863     1.763531705740     2.283574159476    12.000000000000
         C           -2.926509527963     1.439915470440     1.185773468076    12.000000000000
         C           -3.312140228963     2.485237832340     0.278151505776    12.000000000000
         C           -3.462472561763     2.168814964240    -1.108148194324    12.000000000000
         C           -3.131899104663     0.806116313440    -1.554498150024    12.000000000000
         C           -2.550901439963     0.689981514540    -2.831118901024    12.000000000000
         C           -2.241020031363     1.863069623740    -3.559487394624    12.000000000000
         C           -0.908524562163     1.837069280440    -4.050938008624    12.000000000000
         C           -0.239523276063     0.606854905840    -3.682537327424    12.000000000000
         C            1.155009055537     0.638734737640    -3.335727180024    12.000000000000
         C            1.845535699337    -0.464132540060    -2.698067137824    12.000000000000
         C            2.786528917037    -0.140095959460    -1.657643994024    12.000000000000
         C            3.215738100737    -1.155832988860    -0.730112297224    12.000000000000
         C            3.422119222737    -0.803676977560     0.638893866476    12.000000000000
         C            3.213083502137     0.551986050040     1.041613861576    12.000000000000
         C            2.542267454237     0.808902889340     2.280421244876    12.000000000000
         C            2.087733964437    -0.309586496560     3.050100990876    12.000000000000
         C            0.771039335137    -0.264294430260     3.603925265376    12.000000000000
         C           -0.031232026663     0.895118502040     3.357287552476    12.000000000000
         C           -1.398406042063     0.709224730640     2.975933799576    12.000000000000
         C           -1.904918317363    -0.622764143060     2.867636388076    12.000000000000
         C           -2.755214101363    -0.950006481860     1.768669721876    12.000000000000
         C           -3.063462051463     0.061079554940     0.796318589176    12.000000000000
         C           -3.165290244563    -0.283531864460    -0.593471313324    12.000000000000
         C           -2.967202534263    -1.671422880660    -0.967302984124    12.000000000000
         C           -2.535603676463    -2.110925173260    -2.248705216824    12.000000000000
         C           -2.073806356163    -1.452323171560    -3.460835181724    12.000000000000
         C           -1.201131464263    -0.402406250460    -3.569972131124    12.000000000000
         C            0.130079080737    -2.178032059660    -3.287653671324    12.000000000000
         C            1.392616963437    -1.847224762960    -2.784547038024    12.000000000000
         C            2.146017145537    -2.892226143960    -2.095684821524    12.000000000000
         C            3.058314351237    -2.544356064260    -1.059093066324    12.000000000000
         C            3.494358529837    -3.552965402560    -0.131703699924    12.000000000000
         C            3.650690064837    -3.192821266960     1.249429784776    12.000000000000
         C            3.402225928937    -1.839099891860     1.635842642376    12.000000000000
         C            2.709256705737    -1.588730744260     2.862400022876    12.000000000000
         C            2.254386237337    -2.707108342860     3.632777249776    12.000000000000
         C            0.928801181137    -2.662505628660     4.184979168076    12.000000000000
         C            0.128675107337    -1.501484279360     3.941563678376    12.000000000000
         C           -1.241781451563    -1.681880055960     3.573882164876    12.000000000000
         C           -1.769854829863    -3.007750526160     3.502927140276    12.000000000000
         C           -2.661939924863    -3.337258119360     2.426104946976    12.000000000000
         C           -2.951348740363    -2.331517636360     1.440417343776    12.000000000000
         C           -3.070685265863    -2.700408411460     0.065972433076    12.000000000000
         C           -2.933004873363    -4.098116095660    -0.258342543324    12.000000000000
         C           -2.243189056863    -4.438326979160    -1.469399603724    12.000000000000
         C           -1.870674960463    -3.395635912660    -2.342049117824    12.000000000000
         C           -0.504872693263    -3.387328878860    -2.865527457024    12.000000000000
         C            0.329125326437    -4.500970615160    -2.528406716824    12.000000000000
         C            1.697115615037    -4.252198114560    -2.171306303224    12.000000000000
         C            2.420444410337    -5.293115351660    -1.496899727524    12.000000000000
         C            3.339726167937    -4.936953158360    -0.461919587924    12.000000000000
         C            3.735468347937    -5.946014706960     0.486933277676    12.000000000000
         C            3.853971495037    -5.586459291160     1.859940550676    12.000000000000
         C            3.597637409737    -4.226735691060     2.240303993476    12.000000000000
         C            2.873592871037    -3.981540702360     3.449237764876    12.000000000000
         C            2.402530177037    -5.109688962160     4.203954056176    12.000000000000
         C            1.087228294037    -5.066467644460     4.748016666276    12.000000000000
         C            0.287373224637    -3.895426594360     4.520515809576    12.000000000000
         C           -1.093392211863    -4.066973770060     4.188872777476    12.000000000000
         C           -1.621743655563    -5.399086574960     4.132444412476    12.000000000000
         C           -2.539530911563    -5.725483216760     3.093611046176    12.000000000000
         C           -2.878312624163    -4.718343179060     2.123948551676    12.000000000000
         C           -3.016283020463    -5.105792776160     0.756130946576    12.000000000000
         C           -2.776595548863    -6.491828273760     0.417599561176    12.000000000000
         C           -2.022908043963    -6.787328299660    -0.752817980724    12.000000000000
         C           -1.579319869063    -5.702148065360    -1.570312127124    12.000000000000
         C           -0.269566190163    -5.739376464260    -2.127242696124    12.000000000000
         C            0.556468665237    -6.870255362560    -1.832368308324    12.000000000000
         C            1.932725944937    -6.648871305760    -1.536027449624    12.000000000000
         C            2.656603192737    -7.696472431660    -0.874963997924    12.000000000000
         C            3.592127422537    -7.336176694660     0.159710934776    12.000000000000
         C            4.016933488937    -8.335551647660     1.090886312476    12.000000000000
         C            4.114317202337    -7.970493716160     2.484801725376    12.000000000000
         C            3.799839451537    -6.626559726660     2.849996021476    12.000000000000
         C            3.036936540737    -6.385553506360     4.048240138376    12.000000000000
         C            2.594064916037    -7.497785093760     4.830849440876    12.000000000000
         C            1.257155505937    -7.455773866760     5.379033629676    12.000000000000
         C            0.456215428737    -6.301826016060     5.112034737576    12.000000000000
         C           -0.941800412163    -6.467972205760     4.809204464576    12.000000000000
         C           -1.501897305463    -7.782463525660     4.799969130676    12.000000000000
         C           -2.462463252263    -8.104969888360     3.773293371676    12.000000000000
         C           -2.765833725163    -7.110117969660     2.797752355076    12.000000000000
         C           -2.876622903463    -7.511988229860     1.418934375476    12.000000000000
         C           -2.671553765763    -8.892370257960     1.072436340076    12.000000000000
         C           -1.868417074563    -9.173430338960    -0.097519945124    12.000000000000
         C           -1.379656330863    -8.062692210560    -0.859456251324    12.000000000000
         C           -0.052086690763    -8.101770925960    -1.416705427324    12.000000000000
         C            0.767628635637    -9.249075077360    -1.191548193524    12.000000000000
         C            2.171976179437    -9.042127829360    -0.930844261824    12.000000000000
         C            2.991485653537   -10.049790588960    -0.312419158024    12.000000000000
         C            3.895362152137    -9.706180536760     0.668381468276    12.000000000000
         C            4.072329461737    -8.952055746060     3.536799377976    12.000000000000
         C            3.329076945037    -8.724254520960     4.674991735976    12.000000000000
         C            0.558830094937    -8.641599540460     5.797055366876    12.000000000000
         C           -0.782572503363    -8.798999886360     5.519914045776    12.000000000000
         C           -2.832565665363    -9.451218718460     3.434205315176    12.000000000000
         C           -2.960602270163    -9.862217533960     2.120560939776    12.000000000000
         C           -1.198147103263   -10.429116783260    -0.332008128624    12.000000000000
         C            0.078522061937   -10.463659758460    -0.852915385124    12.000000000000
         H           -2.424202845063   -11.967587495260     1.838927020776     1.007825032230
         H           -3.996511357763   -11.686732936560     2.608298605276     1.007825032230
         H           -3.809547279363   -11.422181125460     0.856183441976     1.007825032230
         H            1.342031843337    10.032993729440    -5.685266805324     1.007825032230
         H            2.975919394837    10.487718521740    -3.922995173024     1.007825032230
         H            3.051951524637    11.003424461140    -1.764250248424     1.007825032230
         H            1.744109929337    11.407058338140     0.255158263376     1.007825032230
         H           -0.305489538963    11.479287127740     1.138455865776     1.007825032230
         H           -2.688197187063    11.208070917840     0.691116865876     1.007825032230
         H           -4.214181173763    10.752808298540    -0.852384569324     1.007825032230
         H           -4.386843811763    10.252805723540    -3.240370199124     1.007825032230
         H           -3.099220724263     9.994921562240    -5.047719115924     1.007825032230
         H           -0.858224550763     9.906907977240    -6.002349252324     1.007825032230
         H            2.801107747737   -11.108106090560    -0.516391031224     1.007825032230
         H            4.406782496537   -10.497262427060     1.225066508676     1.007825032230
         H            4.505688098837    -9.943732307060     3.375382221976     1.007825032230
         H            3.188777242237    -9.539908235160     5.390910969576     1.007825032230
         H            1.118686819737    -9.487298915460     6.208006760376     1.007825032230
         H           -1.256304709863    -9.766343372060     5.712962157776     1.007825032230
         H           -2.921981928463   -10.203765212060     4.226516405476     1.007825032230
         H           -1.640980590863   -11.362968788060     0.015350412976     1.007825032230
         H            0.610864299337   -11.419503774260    -0.880517961224     1.007825032230
         H           -2.122343836663    -2.119375511960    -4.348024842224     1.007825032230

  Running in c1 symmetry.

  Rotational constants: A =      0.00067  B =      0.00018  C =      0.00018 [cm^-1]
  Rotational constants: A =     20.22888  B =      5.47698  C =      5.43649 [MHz]
  Nuclear repulsion = 42313.814267568610376

  Charge       = 0
  Multiplicity = 2
  Electrons    = 1049
  Nalpha       = 525
  Nbeta        = 524

  ==> Algorithm <==

  SCF Algorithm Type is DF.
  DIIS enabled.
  MOM disabled.
  Fractional occupation disabled.
  Guess Type is SAD.
  Energy threshold   = 1.00e-08
  Density threshold  = 1.00e-08
  Integral threshold = 1.00e-12

  ==> Primary Basis <==

  Basis Set: 6-31G(D)
    Blend: 6-31G(D)
    Number of shells: 1072
    Number of basis functions: 2611
    Number of Cartesian functions: 2611
    Spherical Harmonics?: false
    Max angular momentum: 2

  ==> DFT Potential <==

   => Composite Functional: PBE <= 

    PBE GGA Exchange-Correlation Functional

    J.P. Perdew et. al., Phys. Rev. Lett., 77(18), 3865-3868, 1996


    Deriv               =              1
    GGA                 =           TRUE
    Meta                =          FALSE

    Exchange Hybrid     =          FALSE
    MP2 Hybrid          =          FALSE

   => Exchange Functionals <=

    1.0000     XC_GGA_X_PBE

   => Correlation Functionals <=

    1.0000     XC_GGA_C_PBE

   => LibXC Density Thresholds  <==

    XC_GGA_C_PBE:  1.00E-12 
    XC_GGA_X_PBE:  1.00E-15 

   => Molecular Quadrature <=

    Radial Scheme          =       TREUTLER
    Pruning Scheme         =           NONE
    Nuclear Scheme         =       TREUTLER

    BS radius alpha        =              1
    Pruning alpha          =              1
    Radial Points          =             75
    Spherical Points       =            302
    Total Points           =        3653295
    Total Blocks           =          24214
    Max Points             =            256
    Max Functions          =            858
    Weights Tolerance      =       1.00E-15

   => Loading Basis Set <=

    Name: (6-31G(D) AUX)
    Role: JKFIT
    Keyword: DF_BASIS_SCF
    atoms 1-171   entry C          line   121 file /home/adamcronin/.conda/envs/p4env/share/psi4/basis/cc-pvdz-jkfit.gbs 
    atoms 172-194 entry H          line    51 file /home/adamcronin/.conda/envs/p4env/share/psi4/basis/cc-pvdz-jkfit.gbs 

  ==> Integral Setup <==

  ==> DiskDFJK: Density-Fitted J/K Matrices <==

    J tasked:                  Yes
    K tasked:                   No
    wK tasked:                  No
    OpenMP threads:              1
    Integrals threads:           1
    Memory [MiB]:            41842
    Algorithm:                Disk
    Integral Cache:           NONE
    Schwarz Cutoff:          1E-12
    Fitting Condition:       1E-10

   => Auxiliary Basis Set <=

  Basis Set: (6-31G(D) AUX)
    Blend: CC-PVDZ-JKFIT
    Number of shells: 4311
    Number of basis functions: 14426
    Number of Cartesian functions: 14426
    Spherical Harmonics?: false
    Max angular momentum: 3

  Cached 10.0% of DFT collocation blocks in 4.150 [GiB].

  Minimum eigenvalue in the overlap matrix is 7.7633090341E-05.
  Reciprocal condition number of the overlap matrix is 9.2247819329E-06.
    Using symmetric orthogonalization.

  ==> Pre-Iterations <==

  SCF Guess: Superposition of Atomic Densities via on-the-fly atomic UHF (no occupation information).

   -------------------------
    Irrep   Nso     Nmo    
   -------------------------
     A       2611    2611 
   -------------------------
    Total    2611    2611
   -------------------------

  ==> Iterations <==

                           Total Energy        Delta E     RMS |[F,P]|

   @DF-UKS iter SAD: -6532.32113491484779   -6.53232e+03   0.00000e+00 
   @DF-UKS iter   1: -6517.92480431338481    1.43963e+01   1.10044e-03 DIIS
   @DF-UKS iter   2: -6517.85388592613162    7.09184e-02   1.15103e-03 DIIS
   @DF-UKS iter   3: -6519.93989900477754   -2.08601e+00   7.42484e-04 DIIS
   @DF-UKS iter   4: -6520.32825498255261   -3.88356e-01   6.23132e-04 DIIS
   @DF-UKS iter   5: -6522.35368703406129   -2.02543e+00   2.21947e-04 DIIS
   @DF-UKS iter   6: -6521.41980096927728    9.33886e-01   4.65356e-04 DIIS
   @DF-UKS iter   7: -6522.48992786403687   -1.07013e+00   1.71795e-04 DIIS
   @DF-UKS iter   8: -6522.50935618368385   -1.94283e-02   1.50784e-04 DIIS
   @DF-UKS iter   9: -6522.60151814446726   -9.21620e-02   8.97825e-05 DIIS
   @DF-UKS iter  10: -6522.64095820538932   -3.94401e-02   3.37900e-05 DIIS
   @DF-UKS iter  11: -6522.64325515140081   -2.29695e-03   2.83400e-05 DIIS
   @DF-UKS iter  12: -6522.64534941792954   -2.09427e-03   1.77348e-05 DIIS
   @DF-UKS iter  13: -6522.64664113336767   -1.29172e-03   7.22217e-06 DIIS
   @DF-UKS iter  14: -6522.64675902020826   -1.17887e-04   5.41008e-06 DIIS
   @DF-UKS iter  15: -6522.64688694680808   -1.27927e-04   2.27680e-06 DIIS
   @DF-UKS iter  16: -6522.64683184858586    5.50982e-05   4.18819e-06 DIIS
   @DF-UKS iter  17: -6522.64688936866878   -5.75201e-05   2.41741e-06 DIIS
   @DF-UKS iter  18: -6522.64688297922839    6.38944e-06   2.85969e-06 DIIS
   @DF-UKS iter  19: -6522.64690804328711   -2.50641e-05   1.85511e-06 DIIS
   @DF-UKS iter  20: -6522.64691272813070   -4.68484e-06   1.55475e-06 DIIS
   @DF-UKS iter  21: -6522.64692167905741   -8.95093e-06   1.05909e-06 DIIS
   @DF-UKS iter  22: -6522.64692276671121   -1.08765e-06   9.80325e-07 DIIS
   @DF-UKS iter  23: -6522.64692550875770   -2.74205e-06   7.23991e-07 DIIS
   @DF-UKS iter  24: -6522.64692743428168   -1.92552e-06   4.15635e-07 DIIS
   @DF-UKS iter  25: -6522.64692755305441   -1.18773e-07   3.93724e-07 DIIS
   @DF-UKS iter  26: -6522.64692790110712   -3.48053e-07   3.19282e-07 DIIS
   @DF-UKS iter  27: -6522.64692836633185   -4.65225e-07   1.49617e-07 DIIS
   @DF-UKS iter  28: -6522.64692841046781   -4.41360e-08   9.98784e-08 DIIS
   @DF-UKS iter  29: -6522.64692839130294    1.91649e-08   1.16524e-07 DIIS
   @DF-UKS iter  30: -6522.64692842461227   -3.33093e-08   8.74749e-08 DIIS
   @DF-UKS iter  31: -6522.64692846102116   -3.64089e-08   2.87208e-08 DIIS
   @DF-UKS iter  32: -6522.64692846639082   -5.36966e-09   1.86508e-08 DIIS
   @DF-UKS iter  33: -6522.64692846576509    6.25732e-10   2.62517e-08 DIIS
   @DF-UKS iter  34: -6522.64692846835533   -2.59024e-09   2.01722e-08 DIIS
   @DF-UKS iter  35: -6522.64692846986873   -1.51340e-09   1.45658e-08 DIIS
   @DF-UKS iter  36: -6522.64692847045080   -5.82077e-10   9.02084e-09 DIIS
  Energy and wave function converged.


  ==> Post-Iterations <==

   Electrons on quadrature grid:
      Nalpha   =  524.9974572099 ; deviation = -2.543e-03
      Nbeta    =  523.9974547750 ; deviation = -2.545e-03
      Ntotal   = 1048.9949119849 ; deviation = -5.088e-03 

   @Spin Contamination Metric:   1.884893915E-02
   @S^2 Expected:                7.500000000E-01
   @S^2 Observed:                7.688489391E-01
   @S   Expected:                5.000000000E-01
   @S   Observed:                5.000000000E-01

    Orbital Energies [Eh]
    ---------------------

    Alpha Occupied:                                                       

       1A     -9.968334     2A     -9.960800     3A     -9.945173  
       4A     -9.937454     5A     -9.936686     6A     -9.936453  
       7A     -9.935636     8A     -9.935439     9A     -9.933454  
      10A     -9.933126    11A     -9.933071    12A     -9.932809  
      13A     -9.932746    14A     -9.932708    15A     -9.932583  
      16A     -9.932476    17A     -9.932383    18A     -9.932258  
      19A     -9.932195    20A     -9.932188    21A     -9.932176  
      22A     -9.932152    23A     -9.932098    24A     -9.932091  
      25A     -9.932087    26A     -9.932032    27A     -9.931860  
      28A     -9.931856    29A     -9.931828    30A     -9.931825  
      31A     -9.931752    32A     -9.931748    33A     -9.931731  
      34A     -9.931720    35A     -9.931595    36A     -9.931593  
      37A     -9.931539    38A     -9.931463    39A     -9.931431  
      40A     -9.931402    41A     -9.931376    42A     -9.931299  
      43A     -9.931248    44A     -9.931191    45A     -9.931138  
      46A     -9.931092    47A     -9.931080    48A     -9.931049  
      49A     -9.931003    50A     -9.930955    51A     -9.930906  
      52A     -9.930901    53A     -9.930899    54A     -9.930889  
      55A     -9.930863    56A     -9.930791    57A     -9.930781  
      58A     -9.930753    59A     -9.930750    60A     -9.930733  
      61A     -9.930699    62A     -9.930668    63A     -9.930603  
      64A     -9.930576    65A     -9.930573    66A     -9.930532  
      67A     -9.930506    68A     -9.930500    69A     -9.930473  
      70A     -9.930472    71A     -9.930463    72A     -9.930408  
      73A     -9.930401    74A     -9.930399    75A     -9.930352  
      76A     -9.930317    77A     -9.930273    78A     -9.930255  
      79A     -9.930249    80A     -9.930237    81A     -9.930190  
      82A     -9.930185    83A     -9.930171    84A     -9.930123  
      85A     -9.930121    86A     -9.930103    87A     -9.930001  
      88A     -9.929995    89A     -9.929973    90A     -9.929931  
      91A     -9.929909    92A     -9.929876    93A     -9.929848  
      94A     -9.929817    95A     -9.929802    96A     -9.929783  
      97A     -9.929644    98A     -9.929604    99A     -9.929555  
     100A     -9.929537   101A     -9.929478   102A     -9.929453  
     103A     -9.929451   104A     -9.929410   105A     -9.929370  
     106A     -9.929320   107A     -9.929317   108A     -9.929311  
     109A     -9.929306   110A     -9.929285   111A     -9.929272  
     112A     -9.929227   113A     -9.929185   114A     -9.929164  
     115A     -9.929088   116A     -9.929079   117A     -9.929063  
     118A     -9.929059   119A     -9.928977   120A     -9.928961  
     121A     -9.928898   122A     -9.928896   123A     -9.928843  
     124A     -9.928802   125A     -9.928784   126A     -9.928731  
     127A     -9.928724   128A     -9.928670   129A     -9.928615  
     130A     -9.928468   131A     -9.928085   132A     -9.927968  
     133A     -9.927899   134A     -9.927869   135A     -9.927592  
     136A     -9.927498   137A     -9.927465   138A     -9.927343  
     139A     -9.927231   140A     -9.927179   141A     -9.927123  
     142A     -9.927019   143A     -9.926947   144A     -9.926648  
     145A     -9.925410   146A     -9.925295   147A     -9.924596  
     148A     -9.924144   149A     -9.921404   150A     -9.921062  
     151A     -9.921044   152A     -9.920660   153A     -9.920327  
     154A     -9.920320   155A     -9.920287   156A     -9.920043  
     157A     -9.919885   158A     -9.919850   159A     -9.919633  
     160A     -9.919524   161A     -9.919462   162A     -9.919380  
     163A     -9.919294   164A     -9.919099   165A     -9.919068  
     166A     -9.918993   167A     -9.918659   168A     -9.916928  
     169A     -9.916162   170A     -9.913405   171A     -9.912756  
     172A     -0.858223   173A     -0.852178   174A     -0.847777  
     175A     -0.847016   176A     -0.843247   177A     -0.841629  
     178A     -0.839539   179A     -0.830423   180A     -0.828814  
     181A     -0.826548   182A     -0.820525   183A     -0.818335  
     184A     -0.816712   185A     -0.816354   186A     -0.814405  
     187A     -0.813510   188A     -0.807092   189A     -0.803152  
     190A     -0.801789   191A     -0.796870   192A     -0.795828  
     193A     -0.790619   194A     -0.789030   195A     -0.786105  
     196A     -0.778759   197A     -0.776418   198A     -0.775110  
     199A     -0.774095   200A     -0.771679   201A     -0.769429  
     202A     -0.769202   203A     -0.767907   204A     -0.760133  
     205A     -0.758952   206A     -0.756239   207A     -0.753266  
     208A     -0.751777   209A     -0.750989   210A     -0.749371  
     211A     -0.744173   212A     -0.743866   213A     -0.734418  
     214A     -0.731472   215A     -0.727880   216A     -0.725530  
     217A     -0.724850   218A     -0.723619   219A     -0.722872  
     220A     -0.715399   221A     -0.712738   222A     -0.710605  
     223A     -0.709958   224A     -0.709510   225A     -0.707560  
     226A     -0.704708   227A     -0.700750   228A     -0.699497  
     229A     -0.698388   230A     -0.696051   231A     -0.694906  
     232A     -0.693224   233A     -0.687861   234A     -0.687126  
     235A     -0.686741   236A     -0.682808   237A     -0.677910  
     238A     -0.674630   239A     -0.672282   240A     -0.670309  
     241A     -0.669316   242A     -0.668133   243A     -0.666049  
     244A     -0.665718   245A     -0.665568   246A     -0.657550  
     247A     -0.656008   248A     -0.653424   249A     -0.652025  
     250A     -0.648514   251A     -0.647456   252A     -0.643595  
     253A     -0.641702   254A     -0.635290   255A     -0.630998  
     256A     -0.621076   257A     -0.615869   258A     -0.612433  
     259A     -0.612022   260A     -0.610502   261A     -0.609140  
     262A     -0.606669   263A     -0.603993   264A     -0.601747  
     265A     -0.599312   266A     -0.598078   267A     -0.595450  
     268A     -0.595040   269A     -0.593814   270A     -0.588013  
     271A     -0.587428   272A     -0.584497   273A     -0.580680  
     274A     -0.578359   275A     -0.578065   276A     -0.576882  
     277A     -0.574309   278A     -0.570973   279A     -0.564093  
     280A     -0.560755   281A     -0.556799   282A     -0.553451  
     283A     -0.551505   284A     -0.550421   285A     -0.549485  
     286A     -0.549027   287A     -0.548372   288A     -0.548106  
     289A     -0.546789   290A     -0.543374   291A     -0.543131  
     292A     -0.542314   293A     -0.541227   294A     -0.540321  
     295A     -0.532046   296A     -0.528890   297A     -0.526130  
     298A     -0.520881   299A     -0.518624   300A     -0.515047  
     301A     -0.511362   302A     -0.509112   303A     -0.508650  
     304A     -0.506305   305A     -0.498635   306A     -0.497348  
     307A     -0.494127   308A     -0.492810   309A     -0.489482  
     310A     -0.488727   311A     -0.482592   312A     -0.481346  
     313A     -0.479928   314A     -0.479370   315A     -0.476773  
     316A     -0.475893   317A     -0.473871   318A     -0.472880  
     319A     -0.470581   320A     -0.468075   321A     -0.467093  
     322A     -0.465513   323A     -0.464670   324A     -0.464627  
     325A     -0.464179   326A     -0.462173   327A     -0.460093  
     328A     -0.459163   329A     -0.457666   330A     -0.457174  
     331A     -0.454722   332A     -0.449240   333A     -0.447531  
     334A     -0.444777   335A     -0.441842   336A     -0.440428  
     337A     -0.439036   338A     -0.437235   339A     -0.436083  
     340A     -0.432305   341A     -0.430381   342A     -0.428764  
     343A     -0.425001   344A     -0.422055   345A     -0.420370  
     346A     -0.419411   347A     -0.418605   348A     -0.418334  
     349A     -0.417009   350A     -0.415563   351A     -0.415317  
     352A     -0.413845   353A     -0.413409   354A     -0.412098  
     355A     -0.411620   356A     -0.410563   357A     -0.410106  
     358A     -0.409818   359A     -0.408748   360A     -0.406561  
     361A     -0.405905   362A     -0.404597   363A     -0.403138  
     364A     -0.402244   365A     -0.402004   366A     -0.401075  
     367A     -0.399890   368A     -0.399210   369A     -0.398167  
     370A     -0.397436   371A     -0.396585   372A     -0.395978  
     373A     -0.395658   374A     -0.395136   375A     -0.393021  
     376A     -0.392165   377A     -0.390686   378A     -0.389846  
     379A     -0.389275   380A     -0.388826   381A     -0.388441  
     382A     -0.387641   383A     -0.387096   384A     -0.385958  
     385A     -0.385463   386A     -0.384585   387A     -0.382743  
     388A     -0.381469   389A     -0.380239   390A     -0.379721  
     391A     -0.377683   392A     -0.375900   393A     -0.375335  
     394A     -0.373460   395A     -0.372803   396A     -0.372449  
     397A     -0.371439   398A     -0.370205   399A     -0.369587  
     400A     -0.368828   401A     -0.368082   402A     -0.367708  
     403A     -0.366135   404A     -0.365795   405A     -0.365303  
     406A     -0.364649   407A     -0.363782   408A     -0.363273  
     409A     -0.362037   410A     -0.361226   411A     -0.360622  
     412A     -0.358986   413A     -0.357917   414A     -0.356692  
     415A     -0.356113   416A     -0.355062   417A     -0.354067  
     418A     -0.353700   419A     -0.352353   420A     -0.349966  
     421A     -0.346631   422A     -0.344565   423A     -0.343408  
     424A     -0.343169   425A     -0.341697   426A     -0.339141  
     427A     -0.334961   428A     -0.332756   429A     -0.329662  
     430A     -0.329231   431A     -0.328585   432A     -0.326712  
     433A     -0.326347   434A     -0.324457   435A     -0.321597  
     436A     -0.321092   437A     -0.319957   438A     -0.319570  
     439A     -0.319286   440A     -0.319049   441A     -0.318214  
     442A     -0.316114   443A     -0.315590   444A     -0.314562  
     445A     -0.312901   446A     -0.309101   447A     -0.307941  
     448A     -0.306697   449A     -0.306351   450A     -0.305865  
     451A     -0.305166   452A     -0.304482   453A     -0.303660  
     454A     -0.303276   455A     -0.302642   456A     -0.301627  
     457A     -0.300855   458A     -0.297517   459A     -0.295820  
     460A     -0.293384   461A     -0.293148   462A     -0.291223  
     463A     -0.289513   464A     -0.288824   465A     -0.288587  
     466A     -0.287789   467A     -0.287684   468A     -0.286510  
     469A     -0.285713   470A     -0.282268   471A     -0.281605  
     472A     -0.279670   473A     -0.277733   474A     -0.277101  
     475A     -0.275941   476A     -0.274143   477A     -0.270559  
     478A     -0.268279   479A     -0.267363   480A     -0.267024  
     481A     -0.265549   482A     -0.265197   483A     -0.263246  
     484A     -0.261456   485A     -0.259332   486A     -0.257787  
     487A     -0.253591   488A     -0.244906   489A     -0.244557  
     490A     -0.244212   491A     -0.241840   492A     -0.241305  
     493A     -0.240832   494A     -0.240008   495A     -0.239724  
     496A     -0.238788   497A     -0.236090   498A     -0.234303  
     499A     -0.227358   500A     -0.227098   501A     -0.225638  
     502A     -0.224123   503A     -0.222209   504A     -0.220402  
     505A     -0.218229   506A     -0.216906   507A     -0.215702  
     508A     -0.212974   509A     -0.210315   510A     -0.208078  
     511A     -0.205445   512A     -0.202158   513A     -0.198512  
     514A     -0.196108   515A     -0.194815   516A     -0.191920  
     517A     -0.189763   518A     -0.188954   519A     -0.184580  
     520A     -0.178287   521A     -0.172910   522A     -0.166786  
     523A     -0.153245   524A     -0.147430   525A     -0.143092  

    Alpha Virtual:                                                        

     526A     -0.121033   527A     -0.118774   528A     -0.102881  
     529A     -0.098346   530A     -0.093274   531A     -0.088606  
     532A     -0.087250   533A     -0.086166   534A     -0.084425  
     535A     -0.083657   536A     -0.082274   537A     -0.080341  
     538A     -0.078255   539A     -0.076891   540A     -0.075214  
     541A     -0.072808   542A     -0.071500   543A     -0.070783  
     544A     -0.069647   545A     -0.067052   546A     -0.065988  
     547A     -0.061858   548A     -0.060727   549A     -0.059569  
     550A     -0.056499   551A     -0.052934   552A     -0.051543  
     553A     -0.047006   554A     -0.044000   555A     -0.043311  
     556A     -0.042675   557A     -0.040437   558A     -0.037526  
     559A     -0.034584   560A     -0.031679   561A     -0.031004  
     562A     -0.030165   563A     -0.029235   564A     -0.027363  
     565A     -0.019608   566A     -0.018835   567A     -0.018143  
     568A     -0.017009   569A     -0.009717   570A     -0.008687  
     571A     -0.001373   572A      0.003304   573A      0.004697  
     574A      0.007202   575A      0.009172   576A      0.011660  
     577A      0.015045   578A      0.018184   579A      0.024554  
     580A      0.029872   581A      0.030656   582A      0.032401  
     583A      0.034863   584A      0.038343   585A      0.039786  
     586A      0.040975   587A      0.042743   588A      0.044335  
     589A      0.045221   590A      0.047028   591A      0.052324  
     592A      0.053740   593A      0.054475   594A      0.057255  
     595A      0.057606   596A      0.058996   597A      0.062729  
     598A      0.063989   599A      0.066755   600A      0.069364  
     601A      0.073685   602A      0.077706   603A      0.077932  
     604A      0.078995   605A      0.080787   606A      0.081938  
     607A      0.084281   608A      0.086076   609A      0.086369  
     610A      0.087196   611A      0.088110   612A      0.089892  
     613A      0.090753   614A      0.091033   615A      0.091902  
     616A      0.092291   617A      0.093575   618A      0.095754  
     619A      0.098004   620A      0.102000   621A      0.108784  
     622A      0.110313   623A      0.116437   624A      0.127211  
     625A      0.135664   626A      0.136836   627A      0.139630  
     628A      0.139947   629A      0.141580   630A      0.142334  
     631A      0.144575   632A      0.145937   633A      0.146858  
     634A      0.148826   635A      0.151176   636A      0.156766  
     637A      0.157659   638A      0.158435   639A      0.159221  
     640A      0.160605   641A      0.161366   642A      0.162851  
     643A      0.164485   644A      0.165059   645A      0.166753  
     646A      0.168524   647A      0.170795   648A      0.173635  
     649A      0.174863   650A      0.177670   651A      0.178507  
     652A      0.178734   653A      0.179400   654A      0.180703  
     655A      0.181570   656A      0.182783   657A      0.183510  
     658A      0.184824   659A      0.185475   660A      0.186513  
     661A      0.188815   662A      0.189952   663A      0.192436  
     664A      0.192706   665A      0.193705   666A      0.194271  
     667A      0.195653   668A      0.196077   669A      0.197170  
     670A      0.198306   671A      0.198970   672A      0.199696  
     673A      0.200113   674A      0.202299   675A      0.203054  
     676A      0.204058   677A      0.204951   678A      0.205416  
     679A      0.205916   680A      0.207378   681A      0.208496  
     682A      0.210879   683A      0.212168   684A      0.213321  
     685A      0.214025   686A      0.215021   687A      0.216154  
     688A      0.218953   689A      0.219459   690A      0.221634  
     691A      0.225196   692A      0.229006   693A      0.229369  
     694A      0.230653   695A      0.233221   696A      0.234320  
     697A      0.235113   698A      0.235586   699A      0.238438  
     700A      0.240991   701A      0.242085   702A      0.242753  
     703A      0.245856   704A      0.249227   705A      0.251284  
     706A      0.251982   707A      0.252214   708A      0.253955  
     709A      0.254232   710A      0.257108   711A      0.260915  
     712A      0.264245   713A      0.265518   714A      0.268091  
     715A      0.269475   716A      0.273830   717A      0.273996  
     718A      0.275771   719A      0.276224   720A      0.278090  
     721A      0.279894   722A      0.281177   723A      0.284021  
     724A      0.285114   725A      0.287062   726A      0.288754  
     727A      0.288780   728A      0.289775   729A      0.291089  
     730A      0.293556   731A      0.295586   732A      0.296187  
     733A      0.298413   734A      0.301420   735A      0.302092  
     736A      0.302518   737A      0.305686   738A      0.309510  
     739A      0.313625   740A      0.319363   741A      0.320210  
     742A      0.321136   743A      0.321862   744A      0.323861  
     745A      0.325748   746A      0.327100   747A      0.329579  
     748A      0.333090   749A      0.334911   750A      0.335062  
     751A      0.336298   752A      0.338610   753A      0.340313  
     754A      0.342323   755A      0.346297   756A      0.348231  
     757A      0.353379   758A      0.354375   759A      0.358920  
     760A      0.361932   761A      0.362732   762A      0.364442  
     763A      0.367193   764A      0.368065   765A      0.372094  
     766A      0.372925   767A      0.377121   768A      0.379726  
     769A      0.381735   770A      0.383411   771A      0.383697  
     772A      0.384911   773A      0.386096   774A      0.388782  
     775A      0.390284   776A      0.390738   777A      0.391368  
     778A      0.393280   779A      0.395035   780A      0.396616  
     781A      0.397077   782A      0.398741   783A      0.400292  
     784A      0.402559   785A      0.403757   786A      0.404268  
     787A      0.405819   788A      0.406933   789A      0.408942  
     790A      0.409300   791A      0.411192   792A      0.411754  
     793A      0.412850   794A      0.413981   795A      0.415795  
     796A      0.416724   797A      0.418666   798A      0.420396  
     799A      0.421433   800A      0.422019   801A      0.424536  
     802A      0.426042   803A      0.427546   804A      0.429066  
     805A      0.429514   806A      0.430677   807A      0.434050  
     808A      0.435929   809A      0.437437   810A      0.439200  
     811A      0.441100   812A      0.441574   813A      0.443584  
     814A      0.444475   815A      0.444783   816A      0.445651  
     817A      0.446813   818A      0.447708   819A      0.448968  
     820A      0.449470   821A      0.450788   822A      0.450984  
     823A      0.451610   824A      0.452646   825A      0.455154  
     826A      0.456146   827A      0.457061   828A      0.458033  
     829A      0.460614   830A      0.461585   831A      0.462701  
     832A      0.464492   833A      0.464701   834A      0.465115  
     835A      0.465750   836A      0.466985   837A      0.467369  
     838A      0.468474   839A      0.469183   840A      0.470701  
     841A      0.471215   842A      0.472030   843A      0.472255  
     844A      0.473199   845A      0.474222   846A      0.474802  
     847A      0.475328   848A      0.476318   849A      0.476871  
     850A      0.478554   851A      0.478768   852A      0.478959  
     853A      0.479466   854A      0.480291   855A      0.480976  
     856A      0.481363   857A      0.482053   858A      0.482336  
     859A      0.482969   860A      0.483964   861A      0.484108  
     862A      0.484542   863A      0.484819   864A      0.485199  
     865A      0.485632   866A      0.486166   867A      0.486652  
     868A      0.487542   869A      0.488239   870A      0.488990  
     871A      0.490126   872A      0.490309   873A      0.491932  
     874A      0.492396   875A      0.492631   876A      0.492793  
     877A      0.493360   878A      0.494481   879A      0.494749  
     880A      0.495311   881A      0.496123   882A      0.497215  
     883A      0.497706   884A      0.497960   885A      0.498751  
     886A      0.499796   887A      0.500162   888A      0.500383  
     889A      0.500718   890A      0.501333   891A      0.502094  
     892A      0.502820   893A      0.503055   894A      0.503535  
     895A      0.504212   896A      0.505255   897A      0.505525  
     898A      0.506440   899A      0.507036   900A      0.508049  
     901A      0.508088   902A      0.508732   903A      0.510249  
     904A      0.510569   905A      0.511185   906A      0.511950  
     907A      0.513228   908A      0.514085   909A      0.514511  
     910A      0.514864   911A      0.515473   912A      0.515942  
     913A      0.516061   914A      0.516803   915A      0.517285  
     916A      0.517990   917A      0.518783   918A      0.519334  
     919A      0.519516   920A      0.520045   921A      0.520677  
     922A      0.522027   923A      0.522616   924A      0.523835  
     925A      0.524158   926A      0.524887   927A      0.525499  
     928A      0.526436   929A      0.526537   930A      0.527223  
     931A      0.527956   932A      0.528447   933A      0.529719  
     934A      0.530284   935A      0.530692   936A      0.531247  
     937A      0.531752   938A      0.531785   939A      0.532742  
     940A      0.533261   941A      0.534457   942A      0.534749  
     943A      0.535991   944A      0.536992   945A      0.537424  
     946A      0.537503   947A      0.537989   948A      0.539514  
     949A      0.540385   950A      0.540861   951A      0.540982  
     952A      0.541534   953A      0.542151   954A      0.542538  
     955A      0.543361   956A      0.544468   957A      0.545321  
     958A      0.545629   959A      0.547456   960A      0.547798  
     961A      0.548280   962A      0.549005   963A      0.549624  
     964A      0.550012   965A      0.551314   966A      0.551524  
     967A      0.552705   968A      0.553434   969A      0.554699  
     970A      0.554855   971A      0.555314   972A      0.555507  
     973A      0.555878   974A      0.556870   975A      0.557619  
     976A      0.557936   977A      0.558638   978A      0.559679  
     979A      0.560749   980A      0.561056   981A      0.561778  
     982A      0.562556   983A      0.563148   984A      0.564122  
     985A      0.566055   986A      0.566201   987A      0.567618  
     988A      0.568820   989A      0.569555   990A      0.571072  
     991A      0.572851   992A      0.574310   993A      0.574910  
     994A      0.575428   995A      0.576840   996A      0.578767  
     997A      0.580705   998A      0.581153   999A      0.583364  
    1000A      0.584900  1001A      0.587525  1002A      0.589935  
    1003A      0.590970  1004A      0.593270  1005A      0.593967  
    1006A      0.594791  1007A      0.596590  1008A      0.597725  
    1009A      0.599283  1010A      0.599732  1011A      0.600391  
    1012A      0.602234  1013A      0.603201  1014A      0.604138  
    1015A      0.605505  1016A      0.608768  1017A      0.609680  
    1018A      0.611587  1019A      0.613481  1020A      0.615117  
    1021A      0.615998  1022A      0.616461  1023A      0.618634  
    1024A      0.620192  1025A      0.621156  1026A      0.623793  
    1027A      0.625256  1028A      0.625486  1029A      0.626595  
    1030A      0.626845  1031A      0.627336  1032A      0.628680  
    1033A      0.629506  1034A      0.629606  1035A      0.631015  
    1036A      0.632034  1037A      0.632371  1038A      0.633279  
    1039A      0.634456  1040A      0.635127  1041A      0.635439  
    1042A      0.636020  1043A      0.636686  1044A      0.637535  
    1045A      0.637854  1046A      0.638312  1047A      0.639420  
    1048A      0.640067  1049A      0.640385  1050A      0.640979  
    1051A      0.642779  1052A      0.643798  1053A      0.645288  
    1054A      0.646031  1055A      0.649461  1056A      0.649822  
    1057A      0.650263  1058A      0.653988  1059A      0.654607  
    1060A      0.656340  1061A      0.657580  1062A      0.658248  
    1063A      0.659360  1064A      0.663925  1065A      0.666885  
    1066A      0.671511  1067A      0.672203  1068A      0.674970  
    1069A      0.676959  1070A      0.678383  1071A      0.681572  
    1072A      0.683136  1073A      0.684198  1074A      0.686983  
    1075A      0.687235  1076A      0.688615  1077A      0.690482  
    1078A      0.691735  1079A      0.693296  1080A      0.694828  
    1081A      0.695363  1082A      0.696597  1083A      0.697976  
    1084A      0.698225  1085A      0.698391  1086A      0.699637  
    1087A      0.700357  1088A      0.702112  1089A      0.703108  
    1090A      0.703911  1091A      0.704385  1092A      0.705644  
    1093A      0.707610  1094A      0.708019  1095A      0.708842  
    1096A      0.710442  1097A      0.711332  1098A      0.712751  
    1099A      0.713738  1100A      0.714423  1101A      0.715563  
    1102A      0.716078  1103A      0.717806  1104A      0.718354  
    1105A      0.719413  1106A      0.721227  1107A      0.722347  
    1108A      0.723471  1109A      0.725704  1110A      0.726522  
    1111A      0.727982  1112A      0.730039  1113A      0.730630  
    1114A      0.731972  1115A      0.733278  1116A      0.735057  
    1117A      0.735236  1118A      0.735747  1119A      0.738454  
    1120A      0.739463  1121A      0.741985  1122A      0.743530  
    1123A      0.745611  1124A      0.746601  1125A      0.747334  
    1126A      0.748143  1127A      0.750701  1128A      0.751861  
    1129A      0.754145  1130A      0.754447  1131A      0.756512  
    1132A      0.757604  1133A      0.759121  1134A      0.760197  
    1135A      0.762504  1136A      0.763472  1137A      0.764580  
    1138A      0.765848  1139A      0.767401  1140A      0.769492  
    1141A      0.772665  1142A      0.773348  1143A      0.776417  
    1144A      0.777184  1145A      0.778842  1146A      0.779840  
    1147A      0.782283  1148A      0.784160  1149A      0.787497  
    1150A      0.789761  1151A      0.790851  1152A      0.791641  
    1153A      0.794154  1154A      0.795536  1155A      0.796350  
    1156A      0.796611  1157A      0.798353  1158A      0.799040  
    1159A      0.799468  1160A      0.802381  1161A      0.804206  
    1162A      0.805530  1163A      0.806322  1164A      0.806724  
    1165A      0.807892  1166A      0.809419  1167A      0.811135  
    1168A      0.812752  1169A      0.813632  1170A      0.815791  
    1171A      0.817329  1172A      0.818124  1173A      0.819083  
    1174A      0.820881  1175A      0.821848  1176A      0.823125  
    1177A      0.823939  1178A      0.824867  1179A      0.825441  
    1180A      0.825879  1181A      0.826226  1182A      0.827041  
    1183A      0.827541  1184A      0.828159  1185A      0.829523  
    1186A      0.830283  1187A      0.831001  1188A      0.832626  
    1189A      0.834252  1190A      0.835790  1191A      0.836627  
    1192A      0.838318  1193A      0.839306  1194A      0.840749  
    1195A      0.841739  1196A      0.845221  1197A      0.849411  
    1198A      0.849606  1199A      0.852376  1200A      0.855392  
    1201A      0.857115  1202A      0.858841  1203A      0.861043  
    1204A      0.861832  1205A      0.862204  1206A      0.864400  
    1207A      0.865416  1208A      0.866104  1209A      0.869767  
    1210A      0.870683  1211A      0.873826  1212A      0.875270  
    1213A      0.877067  1214A      0.878120  1215A      0.881023  
    1216A      0.883379  1217A      0.883962  1218A      0.886435  
    1219A      0.888683  1220A      0.889630  1221A      0.893843  
    1222A      0.896852  1223A      0.899128  1224A      0.903638  
    1225A      0.906162  1226A      0.908638  1227A      0.910333  
    1228A      0.911890  1229A      0.914115  1230A      0.917033  
    1231A      0.918751  1232A      0.920174  1233A      0.922202  
    1234A      0.922838  1235A      0.924040  1236A      0.924510  
    1237A      0.925294  1238A      0.926391  1239A      0.927069  
    1240A      0.928048  1241A      0.930372  1242A      0.930687  
    1243A      0.932700  1244A      0.934720  1245A      0.936127  
    1246A      0.938875  1247A      0.939311  1248A      0.940369  
    1249A      0.944339  1250A      0.945731  1251A      0.946997  
    1252A      0.948427  1253A      0.949992  1254A      0.951985  
    1255A      0.954014  1256A      0.954449  1257A      0.955851  
    1258A      0.958084  1259A      0.960418  1260A      0.961581  
    1261A      0.964768  1262A      0.965010  1263A      0.966107  
    1264A      0.967080  1265A      0.967838  1266A      0.968827  
    1267A      0.973341  1268A      0.973678  1269A      0.977543  
    1270A      0.978244  1271A      0.980213  1272A      0.983479  
    1273A      0.985296  1274A      0.986054  1275A      0.988105  
    1276A      0.989286  1277A      0.990561  1278A      0.993789  
    1279A      0.996042  1280A      0.998473  1281A      0.999722  
    1282A      1.001089  1283A      1.002406  1284A      1.004390  
    1285A      1.004952  1286A      1.006180  1287A      1.008259  
    1288A      1.009999  1289A      1.012060  1290A      1.013729  
    1291A      1.014655  1292A      1.016139  1293A      1.016921  
    1294A      1.018200  1295A      1.020290  1296A      1.021375  
    1297A      1.023539  1298A      1.025380  1299A      1.026429  
    1300A      1.028689  1301A      1.029975  1302A      1.031515  
    1303A      1.032779  1304A      1.034173  1305A      1.034745  
    1306A      1.035599  1307A      1.040588  1308A      1.042348  
    1309A      1.042851  1310A      1.046065  1311A      1.046260  
    1312A      1.048685  1313A      1.049232  1314A      1.052110  
    1315A      1.053248  1316A      1.053432  1317A      1.054697  
    1318A      1.058133  1319A      1.060099  1320A      1.060299  
    1321A      1.060902  1322A      1.062181  1323A      1.063112  
    1324A      1.064857  1325A      1.066289  1326A      1.068899  
    1327A      1.070125  1328A      1.070953  1329A      1.071903  
    1330A      1.072435  1331A      1.074116  1332A      1.075599  
    1333A      1.076320  1334A      1.078538  1335A      1.080784  
    1336A      1.082507  1337A      1.083448  1338A      1.085997  
    1339A      1.086861  1340A      1.089937  1341A      1.091150  
    1342A      1.093046  1343A      1.094879  1344A      1.096315  
    1345A      1.097735  1346A      1.098906  1347A      1.099859  
    1348A      1.103817  1349A      1.105873  1350A      1.107547  
    1351A      1.107821  1352A      1.108645  1353A      1.112304  
    1354A      1.114127  1355A      1.115246  1356A      1.117815  
    1357A      1.119210  1358A      1.120308  1359A      1.122170  
    1360A      1.124154  1361A      1.125232  1362A      1.125550  
    1363A      1.128681  1364A      1.130874  1365A      1.132164  
    1366A      1.133502  1367A      1.134623  1368A      1.137005  
    1369A      1.137476  1370A      1.139942  1371A      1.140442  
    1372A      1.141350  1373A      1.143503  1374A      1.145360  
    1375A      1.146988  1376A      1.148639  1377A      1.150431  
    1378A      1.151601  1379A      1.152341  1380A      1.154310  
    1381A      1.155866  1382A      1.157461  1383A      1.159920  
    1384A      1.160862  1385A      1.162346  1386A      1.164479  
    1387A      1.165458  1388A      1.166682  1389A      1.167526  
    1390A      1.169289  1391A      1.171421  1392A      1.172524  
    1393A      1.175711  1394A      1.177151  1395A      1.178423  
    1396A      1.180312  1397A      1.183342  1398A      1.183924  
    1399A      1.184925  1400A      1.187078  1401A      1.189357  
    1402A      1.191774  1403A      1.193324  1404A      1.196039  
    1405A      1.196591  1406A      1.198280  1407A      1.198610  
    1408A      1.200813  1409A      1.201594  1410A      1.203054  
    1411A      1.204296  1412A      1.206916  1413A      1.209411  
    1414A      1.210880  1415A      1.212213  1416A      1.214270  
    1417A      1.216591  1418A      1.219014  1419A      1.219767  
    1420A      1.220404  1421A      1.221293  1422A      1.223773  
    1423A      1.224269  1424A      1.226055  1425A      1.226746  
    1426A      1.228286  1427A      1.228947  1428A      1.231010  
    1429A      1.231550  1430A      1.233201  1431A      1.236176  
    1432A      1.237261  1433A      1.239269  1434A      1.240587  
    1435A      1.242498  1436A      1.242967  1437A      1.244513  
    1438A      1.246435  1439A      1.247405  1440A      1.248793  
    1441A      1.251396  1442A      1.252574  1443A      1.255241  
    1444A      1.255627  1445A      1.256749  1446A      1.257834  
    1447A      1.259854  1448A      1.260755  1449A      1.263543  
    1450A      1.264223  1451A      1.265157  1452A      1.266431  
    1453A      1.268928  1454A      1.269947  1455A      1.272625  
    1456A      1.273179  1457A      1.273876  1458A      1.275736  
    1459A      1.276482  1460A      1.277896  1461A      1.282173  
    1462A      1.283060  1463A      1.286353  1464A      1.288743  
    1465A      1.290163  1466A      1.291332  1467A      1.294553  
    1468A      1.296531  1469A      1.299962  1470A      1.300860  
    1471A      1.301383  1472A      1.305103  1473A      1.307132  
    1474A      1.309241  1475A      1.311177  1476A      1.312976  
    1477A      1.313216  1478A      1.315987  1479A      1.317142  
    1480A      1.320870  1481A      1.324479  1482A      1.324889  
    1483A      1.326422  1484A      1.328849  1485A      1.330734  
    1486A      1.332581  1487A      1.338746  1488A      1.339870  
    1489A      1.340037  1490A      1.341316  1491A      1.343881  
    1492A      1.344259  1493A      1.345037  1494A      1.346811  
    1495A      1.350914  1496A      1.353804  1497A      1.356100  
    1498A      1.357135  1499A      1.358841  1500A      1.360011  
    1501A      1.365294  1502A      1.368188  1503A      1.370729  
    1504A      1.373442  1505A      1.376880  1506A      1.377131  
    1507A      1.381309  1508A      1.381774  1509A      1.385151  
    1510A      1.386434  1511A      1.388758  1512A      1.390745  
    1513A      1.392877  1514A      1.394777  1515A      1.395792  
    1516A      1.397365  1517A      1.400272  1518A      1.402271  
    1519A      1.402705  1520A      1.404138  1521A      1.406856  
    1522A      1.408599  1523A      1.410215  1524A      1.410380  
    1525A      1.412112  1526A      1.414326  1527A      1.415104  
    1528A      1.416327  1529A      1.418152  1530A      1.418570  
    1531A      1.422214  1532A      1.423531  1533A      1.425192  
    1534A      1.426385  1535A      1.426622  1536A      1.427791  
    1537A      1.428747  1538A      1.430544  1539A      1.431072  
    1540A      1.432320  1541A      1.435221  1542A      1.435610  
    1543A      1.435871  1544A      1.437537  1545A      1.438185  
    1546A      1.439637  1547A      1.439978  1548A      1.440794  
    1549A      1.441561  1550A      1.443010  1551A      1.444978  
    1552A      1.445705  1553A      1.448033  1554A      1.448787  
    1555A      1.450628  1556A      1.450941  1557A      1.452478  
    1558A      1.454708  1559A      1.455201  1560A      1.455474  
    1561A      1.456771  1562A      1.458546  1563A      1.459236  
    1564A      1.459977  1565A      1.462558  1566A      1.463835  
    1567A      1.466195  1568A      1.467815  1569A      1.468515  
    1570A      1.469675  1571A      1.472371  1572A      1.472818  
    1573A      1.474518  1574A      1.475818  1575A      1.476836  
    1576A      1.477841  1577A      1.480597  1578A      1.483524  
    1579A      1.485193  1580A      1.486754  1581A      1.487810  
    1582A      1.489395  1583A      1.489635  1584A      1.491167  
    1585A      1.492930  1586A      1.493896  1587A      1.495058  
    1588A      1.497664  1589A      1.501315  1590A      1.502566  
    1591A      1.503406  1592A      1.505214  1593A      1.506936  
    1594A      1.508122  1595A      1.510926  1596A      1.512379  
    1597A      1.513115  1598A      1.515593  1599A      1.516581  
    1600A      1.516607  1601A      1.518545  1602A      1.519011  
    1603A      1.522188  1604A      1.523839  1605A      1.526801  
    1606A      1.529042  1607A      1.531052  1608A      1.531762  
    1609A      1.534077  1610A      1.536417  1611A      1.538293  
    1612A      1.539119  1613A      1.541946  1614A      1.543424  
    1615A      1.544804  1616A      1.548057  1617A      1.551736  
    1618A      1.552647  1619A      1.554799  1620A      1.556349  
    1621A      1.558171  1622A      1.558981  1623A      1.560288  
    1624A      1.561744  1625A      1.563968  1626A      1.564854  
    1627A      1.566617  1628A      1.567486  1629A      1.568465  
    1630A      1.571668  1631A      1.574198  1632A      1.575270  
    1633A      1.575897  1634A      1.577398  1635A      1.580368  
    1636A      1.580573  1637A      1.581864  1638A      1.583225  
    1639A      1.583958  1640A      1.585742  1641A      1.587353  
    1642A      1.589600  1643A      1.591563  1644A      1.592417  
    1645A      1.596430  1646A      1.598263  1647A      1.599622  
    1648A      1.602068  1649A      1.604598  1650A      1.607067  
    1651A      1.609909  1652A      1.612165  1653A      1.612892  
    1654A      1.616589  1655A      1.620278  1656A      1.622870  
    1657A      1.624304  1658A      1.626172  1659A      1.626388  
    1660A      1.628501  1661A      1.629371  1662A      1.631279  
    1663A      1.632975  1664A      1.634279  1665A      1.636096  
    1666A      1.636410  1667A      1.639031  1668A      1.640296  
    1669A      1.642331  1670A      1.643089  1671A      1.645291  
    1672A      1.645484  1673A      1.646812  1674A      1.647959  
    1675A      1.649026  1676A      1.649784  1677A      1.650166  
    1678A      1.651284  1679A      1.652212  1680A      1.655780  
    1681A      1.656928  1682A      1.658882  1683A      1.659396  
    1684A      1.661530  1685A      1.663596  1686A      1.664622  
    1687A      1.665702  1688A      1.666958  1689A      1.667933  
    1690A      1.672125  1691A      1.673560  1692A      1.675585  
    1693A      1.677453  1694A      1.679281  1695A      1.681201  
    1696A      1.682685  1697A      1.684569  1698A      1.685351  
    1699A      1.687144  1700A      1.687672  1701A      1.688975  
    1702A      1.689874  1703A      1.690102  1704A      1.691032  
    1705A      1.693470  1706A      1.693710  1707A      1.694583  
    1708A      1.695895  1709A      1.696823  1710A      1.698357  
    1711A      1.701536  1712A      1.703302  1713A      1.704633  
    1714A      1.706079  1715A      1.706859  1716A      1.707506  
    1717A      1.709977  1718A      1.711258  1719A      1.712713  
    1720A      1.713666  1721A      1.715435  1722A      1.715671  
    1723A      1.717177  1724A      1.717896  1725A      1.718183  
    1726A      1.720083  1727A      1.720534  1728A      1.722330  
    1729A      1.724405  1730A      1.725800  1731A      1.726220  
    1732A      1.727321  1733A      1.730140  1734A      1.731070  
    1735A      1.731995  1736A      1.732312  1737A      1.733833  
    1738A      1.735748  1739A      1.737631  1740A      1.737912  
    1741A      1.739377  1742A      1.741440  1743A      1.742704  
    1744A      1.743857  1745A      1.746227  1746A      1.747348  
    1747A      1.747960  1748A      1.749707  1749A      1.753144  
    1750A      1.756168  1751A      1.757552  1752A      1.758647  
    1753A      1.759685  1754A      1.760551  1755A      1.762844  
    1756A      1.764266  1757A      1.764681  1758A      1.766810  
    1759A      1.767216  1760A      1.768285  1761A      1.769377  
    1762A      1.769864  1763A      1.771431  1764A      1.772342  
    1765A      1.774177  1766A      1.776497  1767A      1.777135  
    1768A      1.777624  1769A      1.778524  1770A      1.779457  
    1771A      1.780925  1772A      1.781115  1773A      1.782285  
    1774A      1.786171  1775A      1.787246  1776A      1.789086  
    1777A      1.790688  1778A      1.792729  1779A      1.793814  
    1780A      1.796465  1781A      1.797201  1782A      1.799518  
    1783A      1.800251  1784A      1.801397  1785A      1.802855  
    1786A      1.805037  1787A      1.805766  1788A      1.806316  
    1789A      1.808456  1790A      1.809743  1791A      1.810417  
    1792A      1.812029  1793A      1.813282  1794A      1.814466  
    1795A      1.815274  1796A      1.816673  1797A      1.818671  
    1798A      1.818766  1799A      1.819277  1800A      1.820462  
    1801A      1.822612  1802A      1.823874  1803A      1.826047  
    1804A      1.828182  1805A      1.830641  1806A      1.832473  
    1807A      1.834137  1808A      1.836869  1809A      1.838177  
    1810A      1.840145  1811A      1.840779  1812A      1.841364  
    1813A      1.842795  1814A      1.844634  1815A      1.846269  
    1816A      1.847123  1817A      1.847611  1818A      1.848691  
    1819A      1.850581  1820A      1.851773  1821A      1.852357  
    1822A      1.854907  1823A      1.856791  1824A      1.857736  
    1825A      1.860147  1826A      1.862306  1827A      1.862723  
    1828A      1.865102  1829A      1.866451  1830A      1.867332  
    1831A      1.867704  1832A      1.871112  1833A      1.871793  
    1834A      1.873937  1835A      1.874611  1836A      1.875291  
    1837A      1.878038  1838A      1.878860  1839A      1.880184  
    1840A      1.881775  1841A      1.882498  1842A      1.885046  
    1843A      1.885490  1844A      1.890147  1845A      1.890619  
[...]
	 1068 D(44,45,46,47)  =    137.713918     0.000004   -19.335984   118.377934
	 1069 D(44,45,66,65)  =     19.761091     0.000000    17.424631    37.185721
	 1070 D(44,45,66,67)  =   -139.474788     0.000002    16.071720  -123.403068
	 1071 D(44,63,62,61)  =      2.694869    -0.000001     2.444089     5.138959
	 1072 D(44,63,62,81)  =   -161.055227     0.000019    44.292618  -116.762610
	 1073 D(44,63,64,65)  =     19.220673    -0.000001     5.635554    24.856227
	 1074 D(44,63,64,83)  =   -178.453632    -0.000008     1.312771  -177.140861
	 1075 D(45,44,63,62)  =    140.077895    -0.000006   -18.698558   121.379336
	 1076 D(45,44,63,64)  =    -21.483281     0.000003   -17.210284   -38.693565
	 1077 D(45,46,47,48)  =      1.519102    -0.000002     5.094678     6.613781
	 1078 D(45,66,65,64)  =    -22.112911     0.000000     1.611866   -20.501044
	 1079 D(45,66,65,86)  =    177.927968     0.000004    -0.579965   177.348003
	 1080 D(45,66,67,48)  =      1.932441    -0.000003     0.185614     2.118056
	 1081 D(45,66,67,68)  =    160.133259    -0.000003   -30.338709   129.794550
	 1082 D(46,45,44,63)  =   -157.414995     0.000003    37.136406  -120.278589
	 1083 D(46,45,66,65)  =    179.089918    -0.000001    -0.234410   178.855508
	 1084 D(46,45,66,67)  =     19.854039    -0.000000    -1.587321    18.266719
	 1085 D(46,47,48,49)  =   -137.308033    -0.000002     9.716624  -127.591409
	 1086 D(46,47,48,67)  =     20.321990    -0.000000    11.567047    31.889037
	 1087 D(47,28,29,50)  =     -0.080588    -0.000000    -0.202964    -0.283552
	 1088 D(47,46,45,66)  =    -21.589587     0.000004   -20.901671   -42.491258
	 1089 D(47,48,49,50)  =     -0.096649    -0.000002    -0.082672    -0.179321
	 1090 D(47,48,49,70)  =    157.708941    -0.000002   -49.105970   108.602971
	 1091 D(47,48,67,66)  =    -22.066103     0.000005    -2.882072   -24.948175
	 1092 D(47,48,67,68)  =    179.893567     0.000003    -0.090029   179.803538
	 1093 D(48,49,50,51)  =    137.638315     0.000004   -58.131046    79.507269
	 1094 D(48,49,70,69)  =     22.557356    -0.000002    12.847858    35.405214
	 1095 D(48,49,70,71)  =   -135.795047    -0.000002    19.953398  -115.841649
	 1096 D(48,67,66,65)  =   -157.509649    -0.000001    32.905739  -124.603910
	 1097 D(48,67,68,69)  =     22.545017    -0.000002    -1.983354    20.561663
	 1098 D(48,67,68,87)  =   -179.898929    -0.000000     0.042805  -179.856124
	 1099 D(49,48,67,66)  =    135.590237     0.000007   -38.869307    96.720931
	 1100 D(49,48,67,68)  =    -22.450092     0.000005   -36.077263   -58.527356
	 1101 D(49,50,51,52)  =     -1.663348     0.000001    -2.324528    -3.987876
	 1102 D(49,70,69,68)  =    -22.504564     0.000006   -22.503288   -45.007852
	 1103 D(49,70,69,90)  =    179.906727     0.000005    -0.165828   179.740899
	 1104 D(49,70,71,52)  =     -2.075747    -0.000001    -4.669861    -6.745607
	 1105 D(49,70,71,72)  =    157.449429    -0.000002   -58.352056    99.097373
	 1106 D(50,49,48,67)  =   -157.909120    -0.000002    48.765529  -109.143591
	 1107 D(50,49,70,69)  =   -179.783270    -0.000003     0.099963  -179.683307
	 1108 D(50,49,70,71)  =     21.864327    -0.000003     7.205504    29.069831
	 1109 D(50,51,52,53)  =   -138.271656     0.000002    14.540660  -123.730996
	 1110 D(50,51,52,71)  =     21.380324    -0.000003     2.555504    23.935827
	 1111 D(51,32,33,54)  =     -1.343795     0.000002    -0.466436    -1.810230
	 1112 D(51,50,49,70)  =    -19.974459     0.000003   -35.477245   -55.451704
	 1113 D(51,52,53,54)  =     -2.438211     0.000003    -8.022364   -10.460575
	 1114 D(51,52,53,74)  =    157.447240     0.000002   -37.807337   119.639902
	 1115 D(51,52,71,70)  =    -19.494510     0.000004   -37.754950   -57.249461
	 1116 D(51,52,71,72)  =   -178.792831     0.000005     1.732570  -177.060261
	 1117 D(52,53,54,55)  =    142.343444    -0.000008   -19.071252   123.272193
	 1118 D(52,53,74,73)  =     20.993025    -0.000002    -4.621079    16.371946
	 1119 D(52,53,74,75)  =   -141.758390     0.000009     1.419814  -140.338575
	 1120 D(52,71,70,69)  =   -160.550384    -0.000001    52.426357  -108.124027
	 1121 D(52,71,72,73)  =     21.915426    -0.000002    12.156890    34.072316
	 1122 D(52,71,72,91)  =   -177.599400    -0.000006     0.770077  -176.829323
	 1123 D(53,52,71,70)  =    140.170129    -0.000000   -50.228921    89.941208
	 1124 D(53,52,71,72)  =    -19.128192     0.000002   -10.741401   -29.869592
	 1125 D(53,54,55,56)  =      0.446198    -0.000005    -0.015065     0.431133
	 1126 D(53,74,73,72)  =    -18.300285     0.000002   -17.835095   -36.135379
	 1127 D(53,74,73,94)  =    179.494405     0.000009    -0.185926   179.308479
	 1128 D(53,74,75,56)  =     -1.263666    -0.000000    -3.033314    -4.296981
	 1129 D(53,74,75,76)  =    159.035282     0.000002   -16.640134   142.395148
	 1130 D(54,53,52,71)  =   -162.130872     0.000005    29.225506  -132.905366
	 1131 D(54,53,74,73)  =   -179.520856    -0.000005     0.067850  -179.453007
	 1132 D(54,53,74,75)  =     17.727729     0.000006     6.108743    23.836472
	 1133 D(54,55,56,57)  =   -141.730732     0.000003    14.484527  -127.246205
	 1134 D(54,55,56,75)  =     16.217448     0.000010    -2.492673    13.724775
	 1135 D(55,36,37,58)  =      2.637728    -0.000008     0.790538     3.428267
	 1136 D(55,54,53,74)  =    -17.195681    -0.000005     1.355022   -15.840659
	 1137 D(55,56,57,58)  =      6.643461    -0.000015    22.031291    28.674752
	 1138 D(55,56,57,78)  =    159.979883    -0.000020   -26.886488   133.093396
	 1139 D(55,56,75,74)  =    -15.654434    -0.000010    -5.017610   -20.672044
	 1140 D(55,56,75,76)  =   -175.368046    -0.000006    -0.289475  -175.657521
	 1141 D(56,57,58,59)  =    132.793309     0.000019   -24.623548   108.169761
	 1142 D(56,57,78,77)  =     18.245602     0.000007     2.231250    20.476852
	 1143 D(56,57,78,79)  =   -131.311411    -0.000037    51.744441   -79.566970
	 1144 D(56,75,74,73)  =   -164.131270     0.000005    13.728910  -150.402359
	 1145 D(56,75,76,77)  =     14.824712     0.000029     5.927426    20.752138
	 1146 D(56,75,76,95)  =   -177.204726     0.000016     0.542474  -176.662252
	 1147 D(57,56,75,74)  =    142.025065    -0.000004     0.818215   142.843280
	 1148 D(57,56,75,76)  =    -17.688547    -0.000000     5.546350   -12.142197
	 1149 D(57,58,59,60)  =     -0.908805     0.000008    -0.865290    -1.774096
	 1150 D(57,78,77,76)  =    -21.361469     0.000011    -4.230104   -25.591574
	 1151 D(57,78,77,99)  =   -172.411805     0.000037    -0.274554  -172.686359
	 1152 D(57,78,79,60)  =     -3.643833     0.000007    -9.269270   -12.913103
	 1153 D(57,78,79,80)  =    153.538865     0.000019   -61.494798    92.044067
	 1154 D(58,57,56,75)  =   -151.964837    -0.000022    48.888280  -103.076558
	 1155 D(58,57,78,77)  =    172.200556     0.000010    -8.549330   163.651226
	 1156 D(58,57,78,79)  =     22.643542    -0.000034    40.963861    63.607404
	 1157 D(58,59,60,61)  =   -135.894159     0.000000    59.818838   -76.075321
	 1158 D(58,59,60,79)  =     19.683032    -0.000030    26.165977    45.849009
	 1159 D(59,58,57,78)  =    -20.306517     0.000027    -3.646469   -23.952986
	 1160 D(59,60,61,62)  =    154.556837     0.000004   -62.826704    91.730132
	 1161 D(59,60,79,78)  =    -17.659776     0.000023   -12.154638   -29.814413
	 1162 D(59,60,79,80)  =   -172.068520     0.000013     5.456638  -166.611883
	 1163 D(60,61,62,63)  =   -142.889718     0.000014    51.565789   -91.323929
	 1164 D(60,61,62,81)  =     20.300409    -0.000013    33.021093    53.321502
	 1165 D(60,79,78,77)  =   -156.514225    -0.000012    52.932679  -103.581545
	 1166 D(60,79,80,81)  =     13.672066    -0.000022    24.377813    38.049878
	 1167 D(60,79,80,99)  =   -174.276328    -0.000157     9.675443  -164.600886
	 1168 D(61,60,79,78)  =    138.636052     0.000002   -24.315031   114.321021
	 1169 D(61,60,79,80)  =    -15.772693    -0.000009    -6.703756   -22.476449
	 1170 D(61,62,63,64)  =    164.412409    -0.000012   -39.785666   124.626744
	 1171 D(61,62,81,80)  =    -21.933125    -0.000019    -8.378128   -30.311253
	 1172 D(61,62,81,82)  =    175.444424     0.000010    -2.536202   172.908222
	 1173 D(62,61,60,79)  =     -1.011053     0.000027    -2.128323    -3.139376
	 1174 D(62,63,64,65)  =   -142.569791     0.000010    34.177340  -108.392451
	 1175 D(62,63,64,83)  =     19.755905     0.000003    29.854557    49.610461
	 1176 D(62,81,80,79)  =      5.183369     0.000034    12.305838    17.489207
	 1177 D(62,81,80,99)  =   -164.715049     0.000199    44.784204  -119.930845
	 1178 D(62,81,82,83)  =     21.891164     0.000010    17.324762    39.215926
	 1179 D(62,81,82,101) =   -175.285752     0.000028     7.174978  -168.110773
	 1180 D(63,44,45,66)  =      1.958908     0.000000     6.740796     8.699704
	 1181 D(63,62,81,80)  =    140.966378    -0.000042   -20.582677   120.383701
	 1182 D(63,62,81,82)  =    -21.656073    -0.000013   -14.740751   -36.396824
	 1183 D(63,64,65,66)  =      2.505871     0.000002     0.496400     3.002270
	 1184 D(63,64,65,86)  =    162.497121    -0.000002   -27.752100   134.745021
	 1185 D(63,64,83,82)  =    -19.448683    -0.000010    -0.015842   -19.464525
	 1186 D(63,64,83,84)  =    176.482085    -0.000003    -0.728334   175.753751
	 1187 D(64,63,62,81)  =      0.662312     0.000008     2.062863     2.725175
	 1188 D(64,65,66,67)  =    137.247225     0.000001   -18.132676   119.114549
	 1189 D(64,65,86,85)  =     21.090081     0.000001    16.800288    37.890369
	 1190 D(64,65,86,87)  =   -137.875915     0.000003    13.693770  -124.182145
	 1191 D(64,83,82,81)  =     -1.613591     0.000007    -0.825226    -2.438817
	 1192 D(64,83,82,101) =   -165.464165    -0.000005    26.375341  -139.088824
	 1193 D(64,83,84,85)  =     21.678228     0.000005     1.848894    23.527123
	 1194 D(64,83,84,103) =   -176.628450     0.000005     1.824250  -174.804200
	 1195 D(65,64,83,82)  =    142.814817    -0.000012   -11.452005   131.362812
	 1196 D(65,64,83,84)  =    -21.254414    -0.000004   -12.164498   -33.418912
	 1197 D(65,66,67,68)  =      0.691169    -0.000002     2.381416     3.072584
	 1198 D(65,86,85,84)  =    -20.650945    -0.000002     2.881657   -17.769288
	 1199 D(65,86,85,106) =    179.350344     0.000002    -0.108891   179.241453
	 1200 D(65,86,87,68)  =      0.654260    -0.000000     0.028279     0.682539
	 1201 D(65,86,87,88)  =    157.859684    -0.000001   -32.310059   125.549624
	 1202 D(66,65,64,83)  =   -159.959942     0.000005    28.247328  -131.712614
	 1203 D(66,65,86,85)  =   -178.972686    -0.000003     0.223784  -178.748902
	 1204 D(66,65,86,87)  =     22.061319    -0.000001    -2.882735    19.178584
	 1205 D(66,67,68,69)  =   -135.488116    -0.000002    10.976033  -124.512084
	 1206 D(66,67,68,87)  =     22.067937    -0.000001    13.002191    35.070129
	 1207 D(67,48,49,70)  =     -0.103530    -0.000002    -0.257769    -0.361300
	 1208 D(67,66,65,86)  =    -22.711896     0.000004   -20.324508   -43.036404
	 1209 D(67,68,69,70)  =     -0.057160    -0.000003    -0.075303    -0.132463
	 1210 D(67,68,69,90)  =    157.720419    -0.000003   -48.835290   108.885129
	 1211 D(67,68,87,86)  =    -22.736731     0.000003    -2.525713   -25.262444
	 1212 D(67,68,87,88)  =   -179.677721     0.000004     0.238165  -179.439556
	 1213 D(68,69,70,71)  =    135.819051     0.000007   -59.493904    76.325148
	 1214 D(68,69,90,89)  =     22.304398    -0.000002    12.739386    35.043784
	 1215 D(68,69,90,91)  =   -135.072139    -0.000002    19.886356  -115.185783
	 1216 D(68,87,86,85)  =   -158.350268     0.000000    28.524874  -129.825394
	 1217 D(68,87,88,89)  =     22.004426    -0.000002    -1.701437    20.302989
	 1218 D(68,87,88,107) =    179.886450    -0.000002    -0.019048   179.867402
	 1219 D(69,68,87,86)  =    134.817776     0.000006   -38.570329    96.247448
	 1220 D(69,68,87,88)  =    -22.123213     0.000007   -35.806451   -57.929664
	 1221 D(69,70,71,72)  =     -1.025208    -0.000002    -1.255838    -2.281046
	 1222 D(69,90,89,88)  =    -22.418097     0.000006   -22.354169   -44.772266
	 1223 D(69,90,89,110) =   -179.757426     0.000005     0.530487  -179.226939
	 1224 D(69,90,91,72)  =     -0.556516    -0.000004    -1.177527    -1.734043
	 1225 D(69,90,91,92)  =    158.052038    -0.000006   -57.922197   100.129841
	 1226 D(70,69,68,87)  =   -157.801948    -0.000003    48.725837  -109.076111
	 1227 D(70,69,90,89)  =    179.925916    -0.000002    -0.035431   179.890485
	 1228 D(70,69,90,91)  =     22.549380    -0.000002     7.111538    29.660918
	 1229 D(70,71,72,73)  =   -137.537634     0.000002    13.635820  -123.901814
	 1230 D(70,71,72,91)  =     22.947540    -0.000002     2.249007    25.196547
	 1231 D(71,52,53,74)  =     -2.245421     0.000004    -0.559467    -2.804889
	 1232 D(71,70,69,90)  =    -21.769658     0.000006   -37.156443   -58.926101
	 1233 D(71,72,73,74)  =     -3.077267    -0.000001    -9.876600   -12.953867
	 1234 D(71,72,73,94)  =    159.346916    -0.000006   -36.301171   123.045745
	 1235 D(71,72,91,90)  =    -22.202580     0.000007   -41.480332   -63.682912
	 1236 D(71,72,91,92)  =    179.245063     0.000009    -1.103303   178.141761
	 1237 D(72,73,74,75)  =    144.641495    -0.000009   -16.826417   127.815078
	 1238 D(72,73,94,93)  =     22.128695     0.000001    -2.967138    19.161557
	 1239 D(72,73,94,95)  =   -142.250372     0.000011     4.716468  -137.533904
	 1240 D(72,91,90,89)  =   -158.158740    -0.000004    57.290112  -100.868628
	 1241 D(72,91,92,93)  =     20.477878     0.000001    12.507251    32.985129
	 1242 D(72,91,92,111) =   -179.259307    -0.000001     0.276282  -178.983025
	 1243 D(73,72,91,90)  =    138.241694     0.000004   -53.735455    84.506238
	 1244 D(73,72,91,92)  =    -20.310663     0.000006   -13.358426   -33.669089
	 1245 D(73,74,75,76)  =     -3.832322     0.000007     0.122091    -3.710231
	 1246 D(73,94,93,92)  =    -21.995029     0.000007   -30.065034   -52.060063
	 1247 D(73,94,93,114) =    176.541809     0.000007    -2.195410   174.346399
	 1248 D(73,94,95,76)  =     -0.374170    -0.000001    -0.196347    -0.570517
	 1249 D(73,94,95,96)  =    164.918720    -0.000008   -19.511438   145.407282
	 1250 D(74,73,72,91)  =   -163.537702     0.000002    26.037434  -137.500267
	 1251 D(74,73,94,93)  =   -175.674556    -0.000008     0.320591  -175.353964
	 1252 D(74,73,94,95)  =     19.946377     0.000002     8.004197    27.950574
	 1253 D(74,75,76,77)  =   -144.676743     0.000027     0.213898  -144.462845
	 1254 D(74,75,76,95)  =     23.293819     0.000014    -5.171054    18.122765
	 1255 D(75,56,57,78)  =      1.371585    -0.000027    -0.029499     1.342086
	 1256 D(75,74,73,94)  =    -17.563815    -0.000002     0.822751   -16.741063
	 1257 D(75,76,77,78)  =      4.134896    -0.000028     8.081680    12.216576
	 1258 D(75,76,77,99)  =    141.983964    -0.000003    -3.455217   138.528748
	 1259 D(75,76,95,94)  =    -20.950061    -0.000012    -9.617899   -30.567960
	 1260 D(75,76,95,96)  =    174.541581    -0.000010    -0.629342   173.912239
	 1261 D(76,77,78,79)  =    130.111176     0.000050     2.449588   132.560764
	 1262 D(76,77,99,80)  =   -108.304661    -0.000202    62.938185   -45.366476
	 1263 D(76,77,99,98)  =     70.232273     0.000232    65.678415   135.910688
	 1264 D(76,95,94,93)  =   -164.434626     0.000007    19.621711  -144.812915
	 1265 D(76,95,96,97)  =      9.385415    -0.000004     3.900966    13.286381
	 1266 D(76,95,96,115) =   -177.666972    -0.000018     0.254711  -177.412261
	 1267 D(77,76,95,94)  =    146.157627    -0.000025    -7.074689   139.082938
	 1268 D(77,76,95,96)  =    -18.350731    -0.000023     1.913868   -16.436863
	 1269 D(77,78,79,80)  =      0.668473     0.000000     0.707152     1.375625
	 1270 D(77,99,80,79)  =    -36.746026     0.000151   -25.347918   -62.093944
	 1271 D(77,99,80,81)  =    133.985259     0.000002   -38.260112    95.725148
	 1272 D(77,99,98,97)  =    -70.357789    -0.000051    34.531769   -35.826021
	 1273 D(77,99,98,194) =    135.687085    -0.000015    19.610288   155.297374
	 1274 D(78,77,76,95)  =   -163.314662    -0.000028    19.448025  -143.866637
	 1275 D(78,77,99,80)  =     35.551241    -0.000153    69.264867   104.816108
	 1276 D(78,77,99,98)  =   -145.911825     0.000281    72.005097   -73.906728
	 1277 D(78,79,80,81)  =   -143.018497    -0.000028    42.644095  -100.374403
	 1278 D(78,79,80,99)  =     29.033109    -0.000163    27.941725    56.974833
	 1279 D(79,78,77,99)  =    -20.939160     0.000076     6.405138   -14.534021
	 1280 D(79,80,81,82)  =    166.970867     0.000005   -40.492139   126.478728
	 1281 D(80,81,82,83)  =   -139.138246     0.000048    52.950020   -86.188226
	 1282 D(80,81,82,101) =     23.684838     0.000065    42.800237    66.485075
	 1283 D(81,82,83,84)  =    162.138726     0.000003   -32.949616   129.189110
	 1284 D(81,82,101,100) =    -11.699749    -0.000004    -0.936438   -12.636187
	 1285 D(81,82,101,102) =   -179.330619    -0.000020     0.204394  -179.126225
	 1286 D(82,81,80,99)  =     -2.927551     0.000170    -8.013773   -10.941324
	 1287 D(82,83,84,85)  =   -142.353539     0.000012    24.343981  -118.009558
	 1288 D(82,83,84,103) =     19.339782     0.000012    24.319336    43.659119
	 1289 D(82,101,100,119) =   -153.719018    -0.000033    62.989470   -90.729548
	 1290 D(82,101,102,103) =     17.924255     0.000010    11.332753    29.257008
	 1291 D(82,101,102,121) =    179.555692     0.000014    -0.802389   178.753303
	 1292 D(83,64,65,86)  =      0.031308     0.000001    -0.001171     0.030137
	 1293 D(83,82,101,100) =    151.110395     0.000013    -7.043250   144.067145
	 1294 D(83,82,101,102) =    -16.520475    -0.000003    -5.902418   -22.422893
	 1295 D(83,84,85,86)  =     -0.834946     0.000003     0.022422    -0.812524
	 1296 D(83,84,85,106) =    159.171691     0.000000   -25.634573   133.537118
	 1297 D(83,84,103,102) =    -18.024793    -0.000004     3.447315   -14.577478
	 1298 D(83,84,103,104) =    179.713551    -0.000005     0.011768   179.725319
	 1299 D(84,83,82,101) =     -1.711847    -0.000009    -5.749049    -7.460897
	 1300 D(84,85,86,87)  =    138.295318    -0.000002   -14.159114   124.136204
	 1301 D(84,85,106,105) =     21.932982     0.000004    15.013407    36.946389
	 1302 D(84,85,106,107) =   -137.156038     0.000004    10.662035  -126.494003
	 1303 D(84,103,102,101) =     -0.507017    -0.000008    -0.057139    -0.564156
	 1304 D(84,103,102,121) =   -162.392497    -0.000011    29.969321  -132.423177
	 1305 D(84,103,104,105) =     20.826226     0.000006    -0.901247    19.924979
	 1306 D(84,103,104,123) =   -179.859542     0.000007     0.031457  -179.828085
	 1307 D(85,84,103,102) =    143.812940    -0.000004    -1.760391   142.052549
	 1308 D(85,84,103,104) =    -18.448717    -0.000006    -5.195938   -23.644655
	 1309 D(85,86,87,88)  =     -1.144845    -0.000001    -3.813464    -4.958308
	 1310 D(85,106,105,104) =    -19.491597    -0.000003     3.682788   -15.808809
	 1311 D(85,106,105,126) =   -178.477348    -0.000002     0.189897  -178.287451
	 1312 D(85,106,107,88) =     -1.096397     0.000001    -0.027389    -1.123785
	 1313 D(85,106,107,108) =    157.257812     0.000001   -30.752827   126.504985
	 1314 D(86,85,84,103) =   -162.861813     0.000002    17.644181  -145.217632
	 1315 D(86,85,106,105) =   -178.100696    -0.000000     0.205363  -177.895334
	 1316 D(86,85,106,107) =     22.810284    -0.000000    -4.146010    18.664274
	 1317 D(86,87,88,89)  =   -134.934418    -0.000001    12.329980  -122.604438
	 1318 D(86,87,88,107) =     22.947605    -0.000001    14.012369    36.959974
	 1319 D(87,68,69,90)  =     -0.024369    -0.000004    -0.034150    -0.058519
	 1320 D(87,86,85,106) =    -21.703393     0.000002   -17.149663   -38.853055
	 1321 D(87,88,89,90)  =      0.255569    -0.000003     0.109947     0.365516
	 1322 D(87,88,89,110) =    157.770599    -0.000003   -49.714459   108.056140
	 1323 D(87,88,107,106) =    -21.804