
    -----------------------------------------------------------------------
          Psi4: An Open-Source Ab Initio Electronic Structure Package
                               Psi4 1.1 release

                         Git: Rev {HEAD} add49b9 


    R. M. Parrish, L. A. Burns, D. G. A. Smith, A. C. Simmonett,
    A. E. DePrince III, E. G. Hohenstein, U. Bozkaya, A. Yu. Sokolov,
    R. Di Remigio, R. M. Richard, J. F. Gonthier, A. M. James,
    H. R. McAlexander, A. Kumar, M. Saitow, X. Wang, B. P. Pritchard,
    P. Verma, H. F. Schaefer III, K. Patkowski, R. A. King, E. F. Valeev,
    F. A. Evangelista, J. M. Turney, T. D. Crawford, and C. D. Sherrill,
    J. Chem. Theory Comput. in press (2017).
    (doi: 10.1021/acs.jctc.7b00174)

    -----------------------------------------------------------------------


    Psi4 started on: Saturday, 19 December 2020 05:19AM

    Process ID: 116496
    PSIDATADIR: /usr/local/Dist/psi4conda/share/psi4
    Memory:     500.0 MiB
    Threads:    10
    
  ==> Input File <==

--------------------------------------------------------------------------
molecule{
0 2
C    0.00000000  0.00000000  0.00000000
C    1.93309346  21.0171339 -6.30955738
C    2.82948724  21.4085566 -5.33626156
C    3.32009733  20.4605234 -4.37482684
C    3.45702410  20.7851479 -2.96943738
C    3.11116243  22.0765885 -2.44381700
C    2.42696939  22.1855516 -1.25043256
C    2.05063011  21.0090007 -0.51703566
C    0.74988531  20.8694217  0.10557470
C   -0.24992570  21.8983107  0.03101755
C   -1.57042607  21.5741023 -0.20392569
C   -1.96346059  20.2032255 -0.37734669
C   -2.90459290  19.7924215 -1.39937245
C   -3.50733185  20.7286835 -2.30707073
C   -3.63767343  20.4198553 -3.64564329
C   -3.17295729  19.1576531 -4.15019375
C   -2.45458723  19.0431354 -5.40320627
C   -2.15916390  20.1841637 -6.22456455
C   -0.92021386  20.3169139 -6.81739714
C    0.09139001  19.3158187 -6.62153600
C    1.47790905  19.6560759 -6.37475127
C    2.31074698  18.6736627 -5.75826777
C    3.24687184  19.0825351 -4.74171780
C    3.76739093  18.0792613 -3.85564462
C    3.90223543  18.3983209 -2.47441531
C    3.51128091  19.7080885 -2.03354610
C    2.79664431  19.8218554 -0.78722957
C    2.51447037  18.6192225 -0.05456771
C    1.23603449  18.4819950  0.55728861
C    0.29008207  19.5528792  0.41232833
C   -1.08906393  19.2142473  0.16683970
C   -1.44125758  17.8246003  0.08043090
C   -2.36626845  17.4208626 -0.92401854
C   -2.90284628  18.4225685 -1.80228340
C   -3.03923805  18.0999955 -3.20026423
C   -2.63158419  16.7943830 -3.63830512
C   -1.92547856  16.6818630 -4.86974757
C   -1.65457039  17.8794905 -5.61472100
C   -0.36066295  18.0180230 -6.23400900
C    0.58683673  16.9509635 -6.07172168
C    1.94951341  17.2854219 -5.82902637
C    2.81332214  16.2905531 -5.25731395
C    3.74451315  16.6973184 -4.24620001
C    4.27898816  15.7073770 -3.36541401
C    4.41558129  16.0298683 -1.96965480
C    4.01064270  17.3259890 -1.52516647
C    3.29985447  17.4391496 -0.28542719
C    3.02282268  16.2515770  0.45928826
C    1.73074151  16.1127490  1.07731611
C    0.78120192  17.1686947  0.91951767
C   -0.59058734  16.8318427  0.67511015
C   -0.95653308  15.4528396  0.59826764
C   -1.89146864  15.0449166 -0.41671587
C   -2.41328463  16.0364449 -1.30331448
C   -2.54921675  15.7155075 -2.69385579
C   -2.15832798  14.4160143 -3.14108648
C   -1.44482768  14.3022377 -4.38557922
C   -1.15798741  15.4939046 -5.11985156
C    0.12918279  15.6317332 -5.73559804
C    1.07711926  14.5723857 -5.59147628
C    2.45416793  14.9104283 -5.34604380
C    3.30728177  13.9212455 -4.75720728
C    4.23675797  14.3272920 -3.74830923
C    4.76935236  13.3301617 -2.86072166
C    4.90570874  13.6512852 -1.47117692
C    4.50384353  14.9568651 -1.02423904
C    3.79455854  15.0697318  0.21307699
C    3.51314943  13.8727364  0.95751815
C    2.22660037  13.7342910  1.57243885
C    1.27281110  14.7986426  1.41876078
C   -0.09616424  14.4624796  1.17457753
C   -0.46033178  13.0744489  1.09284993
C   -1.39139244  12.6685037  0.08244179
C   -1.92130426  13.6663383 -0.80598105
C   -2.05738716  13.3459229 -2.19364993
C   -1.65925831  12.0394233 -2.64151120
C   -0.94884389  11.9260623 -3.88050944
C   -0.66462320  13.1239567 -4.62234258
C    0.62011635  13.2615552 -5.23647825
C    1.57323513  12.1962814 -5.08533312
C    2.94417201  12.5329701 -4.84067070
C    3.80274190  11.5444855 -4.26325983
C    4.73837879  11.9531325 -3.24877860
C    5.26289674  10.9607238 -2.36131711
C    5.39960387  11.2818750 -0.97181215
C    5.00616865  12.5828789 -0.52448115
C    4.29246944  12.6962321  0.72033514
C    4.00655274  11.5027289  1.45655012
C    2.71991349  11.3640305  2.07117138
C    1.77016935  12.4247298  1.92553779
C    0.39293091  12.0865820  1.67935241
C    0.03310678  10.7043821  1.59073978
C   -0.89834828  10.2988797  0.58055961
C   -1.43319398  11.2906727 -0.30124436
C   -1.57089522  10.9679281 -1.69724174
C   -1.16795827  9.66906359 -2.14308683
C   -0.45733613  9.55565576 -3.38191052
C    0.32602996  11.5056957 -4.57829316
C    0.61131690  10.1244661 -4.29088903
C    2.06563127  9.82633626 -4.58487027
C    3.43646922  10.1631498 -4.34002914
C    4.29483433  9.17031756 -3.75422659
C    5.22572502  9.57662199 -2.74678132
C    5.76319518  8.58414033 -1.86422963
C    5.90083196  8.90673686 -0.46854669
C    5.49407678  10.2062395 -0.02307383
C    4.78417164  10.3184448  1.21394044
C    4.50631631  9.12653254  1.95937703
C    3.21370503  8.98675546  2.57607576
C    2.26193721  10.0464329  2.41831887
C    0.89297288  9.71052885  2.17323500
C    0.52633721  8.32781124  2.09555711
C   -0.40969363  7.92154962  1.08090700
C   -0.93404416  8.91545812  0.19308205
C   -1.07211721  8.59362870 -1.19425535
C   -0.68162692  7.28967804 -1.64255907
C    0.03257076  7.17591062 -2.88658012
C    0.32132733  8.37141203 -3.62202358
C    1.60725533  8.50986483 -4.23390494
C    2.55758118  7.44809815 -4.08597969
C    3.93448313  7.78625055 -3.84098801
C    4.78635794  6.80079886 -3.25400937
C    5.72067336  7.20803757 -2.24593805
C    6.24161672  6.20972491 -1.35444247
C    6.37828933  6.52899030  0.02646516
C    5.98926776  7.83691490  0.47441604
C    5.27691520  7.94863538  1.71342162
C    4.98666862  6.74632170  2.44394525
C    3.70671281  6.60680087  3.05228627
C    2.75666051  7.67556123  2.91430773
C    1.38487596  7.33949341  2.66890029
C    1.02954503  5.95154169  2.57315584
C    0.10332856  5.55161194  1.56828421
C   -0.44098629  6.54782395  0.69136750
C   -0.58017720  6.22300194 -0.69714743
C   -0.16973140  4.91846293 -1.13972476
C    0.53796393  4.80729692 -2.36884358
C    0.81225491  6.00135411 -3.11972254
C    2.10122431  6.14157601 -3.72954762
C    3.05286261  5.08087177 -3.55814048
C    4.41655090  5.41479983 -3.32028037
C    5.27600140  4.41668719 -2.74825362
C    6.21671738  4.82565031 -1.73656481
C    6.78393550  3.84001641 -0.87311370
C    6.92510812  4.16558837  0.53150205
C    6.48574867  5.45153377  0.96985262
C    5.76817141  5.56325598  2.21479815
C    5.51315907  4.38461958  2.97929768
C    4.20846038  4.23967996  3.59231789
C    3.25721536  5.28807329  3.40358518
C    1.87887596  4.95038838  3.15471713
C    1.49545961  3.57519233  3.09971157
C    0.54327406  3.17374273  2.08704514
C    0.05647982  4.16915722  1.19145531
C   -0.08501006  3.83428581 -0.20168047
C    0.24807984  2.51578729 -0.65099549
C    0.98594196  2.40947509 -1.89756329
C    1.30552602  3.61733865 -2.60003403
C    2.60122475  3.76155790 -3.21422835
C    3.54704240  2.69784315 -3.11052743
C    4.93323591  3.03591961 -2.86461935
C    5.86620668  2.09201478 -2.31517741
C    6.76759707  2.48359199 -1.34651281
C    7.06158202  3.15409976  1.54264590
C    6.37417899  3.26081544  2.73413590
C    3.68859211  2.95928981  3.98552796
C    2.36937548  2.63505095  3.74295930
C    0.34147451  1.81467355  1.67911870
C    0.17036225  1.46303822  0.34965920
C    1.76309220  1.25450711 -2.26644047
C    3.00780956  1.39574430 -2.84577856
H    0.96694494 -0.52645454 -0.10515561
H   -0.55631637 -0.51295973  0.80252019
H   -0.56198100 -0.13691387 -0.93806047
H    1.45975807  21.7819994 -6.93278783
H    3.04496074  22.4741860 -5.21177507
H    3.25389801  22.9719211 -3.05658944
H    2.04398627  23.1645523 -0.94651788
H    0.04949635  22.9506225  0.00940855
H   -2.28560007  22.3773043 -0.40610782
H   -3.72844089  21.7473875 -1.97416021
H   -3.95902747  21.2012809 -4.34105074
H   -2.85798022  21.0254009 -6.26286659
H   -0.66711634  21.2601262 -7.31113580
H    5.76754550  1.02749943 -2.54892716
H    7.36258994  1.71994687 -0.83632771
H    7.59000317  2.22288688  1.31654394
H    6.37450511  2.41170129  3.42441083
H    4.36993315  2.17848772  4.33689220
H    2.03712320  1.60471442  3.90360513
H    0.42242566  1.00997614  2.41939886
H    1.43856881  0.25569591 -1.97428399
H    3.63357620  0.50709692 -2.97471597
H    0.17332666  10.0023176 -5.28994007
}
set reference uhf
memory 20 GB
set basis 6-31G(d)
optimize('pbe')
--------------------------------------------------------------------------

  Memory set to  18.626 GiB by Python driver.
gradient() will perform analytic gradient computation.

*** tstart() called on node15.cluster
*** at Sat Dec 19 05:19:50 2020

   => Loading Basis Set <=

    Name: 6-31G(D)
    Role: ORBITAL
    Keyword: BASIS
    atoms 1-171   entry C          line   102 file /usr/local/Dist/psi4conda/share/psi4/basis/6-31g_d_.gbs 
    atoms 172-194 entry H          line    35 file /usr/local/Dist/psi4conda/share/psi4/basis/6-31g_d_.gbs 


         ---------------------------------------------------------
                                   SCF
            by Justin Turney, Rob Parrish, and Andy Simmonett
                              UKS Reference
                       10 Threads,  19073 MiB Core
         ---------------------------------------------------------

  ==> Geometry <==

    Molecular point group: c1
    Full point group: C1

    Geometry (in Angstrom), charge = 0, multiplicity = 2:

       Center              X                  Y                   Z               Mass       
    ------------   -----------------  -----------------  -----------------  -----------------
           C         -1.779001356712   -11.636581255254     1.450821448972    12.000000000000
           C          0.154092103288     9.380552644746    -4.858735931028    12.000000000000
           C          1.050485883288     9.771975344746    -3.885440111028    12.000000000000
           C          1.541095973288     8.823942144746    -2.924005391028    12.000000000000
           C          1.678022743288     9.148566644746    -1.518615931028    12.000000000000
           C          1.332161073288    10.440007244746    -0.992995551028    12.000000000000
           C          0.647968033288    10.548970344746     0.200388888972    12.000000000000
           C          0.271628753288     9.372419444746     0.933785788972    12.000000000000
           C         -1.029116046712     9.232840444746     1.556396148972    12.000000000000
           C         -2.028927056712    10.261729444746     1.481838998972    12.000000000000
           C         -3.349427426712     9.937521044746     1.246895758972    12.000000000000
           C         -3.742461946712     8.566644244746     1.073474758972    12.000000000000
           C         -4.683594256712     8.155840244746     0.051448998972    12.000000000000
           C         -5.286333206712     9.092102244746    -0.856249281028    12.000000000000
           C         -5.416674786712     8.783274044746    -2.194821841028    12.000000000000
           C         -4.951958646712     7.521071844746    -2.699372301028    12.000000000000
           C         -4.233588586712     7.406554144746    -3.952384821028    12.000000000000
           C         -3.938165256712     8.547582444746    -4.773743101028    12.000000000000
           C         -2.699215216712     8.680332644746    -5.366575691028    12.000000000000
           C         -1.687611346712     7.679237444746    -5.170714551028    12.000000000000
           C         -0.301092306712     8.019494644746    -4.923929821028    12.000000000000
           C          0.531745623288     7.037081444746    -4.307446321028    12.000000000000
           C          1.467870483288     7.445953844746    -3.290896351028    12.000000000000
           C          1.988389573288     6.442680044746    -2.404823171028    12.000000000000
           C          2.123234073288     6.761739644746    -1.023593861028    12.000000000000
           C          1.732279553288     8.071507244746    -0.582724651028    12.000000000000
           C          1.017642953288     8.185274144746     0.663591878972    12.000000000000
           C          0.735469013288     6.982641244746     1.396253738972    12.000000000000
           C         -0.542966866712     6.845413744746     2.008110058972    12.000000000000
           C         -1.488919286712     7.916297944746     1.863149778972    12.000000000000
           C         -2.868065286712     7.577666044746     1.617661148972    12.000000000000
           C         -3.220258936712     6.188019044746     1.531252348972    12.000000000000
           C         -4.145269806712     5.784281344746     0.526802908972    12.000000000000
           C         -4.681847636712     6.785987244746    -0.351461951028    12.000000000000
           C         -4.818239406712     6.463414244746    -1.749442781028    12.000000000000
           C         -4.410585546712     5.157801744746    -2.187483671028    12.000000000000
           C         -3.704479916712     5.045281744746    -3.418926121028    12.000000000000
           C         -3.433571746712     6.242909244746    -4.163899551028    12.000000000000
           C         -2.139664306712     6.381441744746    -4.783187551028    12.000000000000
           C         -1.192164626712     5.314382244746    -4.620900231028    12.000000000000
           C          0.170512053288     5.648840644746    -4.378204921028    12.000000000000
           C          1.034320783288     4.653971844746    -3.806492501028    12.000000000000
           C          1.965511793288     5.060737144746    -2.795378561028    12.000000000000
           C          2.499986803288     4.070795744746    -1.914592561028    12.000000000000
           C          2.636579933288     4.393287044746    -0.518833351028    12.000000000000
           C          2.231641343288     5.689407744746    -0.074345021028    12.000000000000
           C          1.520853113288     5.802568344746     1.165394258972    12.000000000000
           C          1.243821323288     4.614995744746     1.910109708972    12.000000000000
           C         -0.048259846712     4.476167744746     2.528137558972    12.000000000000
           C         -0.997799436712     5.532113444746     2.370339118972    12.000000000000
           C         -2.369588696712     5.195261444746     2.125931598972    12.000000000000
           C         -2.735534436712     3.816258344746     2.049089088972    12.000000000000
           C         -3.670469996712     3.408335344746     1.034105578972    12.000000000000
           C         -4.192285986712     4.399863644746     0.147506968972    12.000000000000
           C         -4.328218106712     4.078926244746    -1.243034341028    12.000000000000
           C         -3.937329336712     2.779433044746    -1.690265031028    12.000000000000
           C         -3.223829036712     2.665656444746    -2.934757771028    12.000000000000
           C         -2.936988766712     3.857323344746    -3.669030111028    12.000000000000
           C         -1.649818566712     3.995151944746    -4.284776591028    12.000000000000
           C         -0.701882096712     2.935804444746    -4.140654831028    12.000000000000
           C          0.675166573288     3.273847044746    -3.895222351028    12.000000000000
           C          1.528280413288     2.284664244746    -3.306385831028    12.000000000000
           C          2.457756613288     2.690710744746    -2.297487781028    12.000000000000
           C          2.990351003288     1.693580444746    -1.409900211028    12.000000000000
           C          3.126707383288     2.014703944746    -0.020355471028    12.000000000000
           C          2.724842173288     3.320283844746     0.426582408972    12.000000000000
           C          2.015557183288     3.433150544746     1.663898438972    12.000000000000
           C          1.734148073288     2.236155144746     2.408339598972    12.000000000000
           C          0.447599013288     2.097709744746     3.023260298972    12.000000000000
           C         -0.506190256712     3.162061344746     2.869582228972    12.000000000000
           C         -1.875165596712     2.825898344746     2.625398978972    12.000000000000
           C         -2.239333136712     1.437867644746     2.543671378972    12.000000000000
           C         -3.170393796712     1.031922444746     1.533263238972    12.000000000000
           C         -3.700305616712     2.029757044746     0.644840398972    12.000000000000
           C         -3.836388516712     1.709341644746    -0.742828481028    12.000000000000
           C         -3.438259666712     0.402842044746    -1.190689751028    12.000000000000
           C         -2.727845246712     0.289481044746    -2.429687991028    12.000000000000
           C         -2.443624556712     1.487375444746    -3.171521131028    12.000000000000
           C         -1.158885006712     1.624973944746    -3.785656801028    12.000000000000
           C         -0.205766226712     0.559700144746    -3.634511671028    12.000000000000
           C          1.165170653288     0.896388844746    -3.389849251028    12.000000000000
           C          2.023740543288    -0.092095755254    -2.812438381028    12.000000000000
           C          2.959377433288     0.316551244746    -1.797957151028    12.000000000000
           C          3.483895383288    -0.675857455254    -0.910495661028    12.000000000000
           C          3.620602513288    -0.354706255254     0.479009298972    12.000000000000
           C          3.227167293288     0.946297644746     0.926340298972    12.000000000000
           C          2.513468083288     1.059650844746     2.171156588972    12.000000000000
           C          2.227551383288    -0.133852355254     2.907371568972    12.000000000000
           C          0.940912133288    -0.272550755254     3.521992828972    12.000000000000
           C         -0.008832006712     0.788148544746     3.376359238972    12.000000000000
           C         -1.386070446712     0.450000744746     3.130173858972    12.000000000000
           C         -1.745894576712    -0.932199155254     3.041561228972    12.000000000000
           C         -2.677349636712    -1.337701555254     2.031381058972    12.000000000000
           C         -3.212195336712    -0.345908555254     1.149577088972    12.000000000000
           C         -3.349896576712    -0.668653155254    -0.246420291028    12.000000000000
           C         -2.946959626712    -1.967517665254    -0.692265381028    12.000000000000
           C         -2.236337486712    -2.080925495254    -1.931089071028    12.000000000000
           C         -1.452971396712    -0.130885555254    -3.127471711028    12.000000000000
           C         -1.167684456712    -1.512115155254    -2.840067581028    12.000000000000
           C          0.286629913288    -1.810244995254    -3.134048821028    12.000000000000
           C          1.657467863288    -1.473431455254    -2.889207691028    12.000000000000
           C          2.515832973288    -2.466263695254    -2.303405141028    12.000000000000
           C          3.446723663288    -2.059959265254    -1.295959871028    12.000000000000
           C          3.984193823288    -3.052440925254    -0.413408181028    12.000000000000
           C          4.121830603288    -2.729844395254     0.982274758972    12.000000000000
           C          3.715075423288    -1.430341755254     1.427747618972    12.000000000000
           C          3.005170283288    -1.318136455254     2.664761888972    12.000000000000
           C          2.727314953288    -2.510048715254     3.410198478972    12.000000000000
           C          1.434703673288    -2.649825795254     4.026897208972    12.000000000000
           C          0.482935853288    -1.590148355254     3.869140318972    12.000000000000
           C         -0.886028476712    -1.926052405254     3.624056448972    12.000000000000
           C         -1.252664146712    -3.308770015254     3.546378558972    12.000000000000
           C         -2.188694986712    -3.715031635254     2.531728448972    12.000000000000
           C         -2.713045516712    -2.721123135254     1.643903498972    12.000000000000
           C         -2.851118566712    -3.042952555254     0.256566098972    12.000000000000
           C         -2.460628276712    -4.346903215254    -0.191737621028    12.000000000000
           C         -1.746430596712    -4.460670635254    -1.435758671028    12.000000000000
           C         -1.457674026712    -3.265169225254    -2.171202131028    12.000000000000
           C         -0.171746026712    -3.126716425254    -2.783083491028    12.000000000000
           C          0.778579823288    -4.188483105254    -2.635158241028    12.000000000000
           C          2.155481773288    -3.850330705254    -2.390166561028    12.000000000000
           C          3.007356583288    -4.835782395254    -1.803187921028    12.000000000000
           C          3.941672003288    -4.428543685254    -0.795116601028    12.000000000000
           C          4.462615363288    -5.426856345254     0.096378978972    12.000000000000
           C          4.599287973288    -5.107590955254     1.477286608972    12.000000000000
           C          4.210266403288    -3.799666355254     1.925237488972    12.000000000000
           C          3.497913843288    -3.687945875254     3.164243068972    12.000000000000
           C          3.207667263288    -4.890259555254     3.894766698972    12.000000000000
           C          1.927711453288    -5.029780385254     4.503107718972    12.000000000000
           C          0.977659153288    -3.961020025254     4.365129178972    12.000000000000
           C         -0.394125396712    -4.297087845254     4.119721738972    12.000000000000
           C         -0.749456326712    -5.685039565254     4.023977288972    12.000000000000
           C         -1.675672796712    -6.084969315254     3.019105658972    12.000000000000
           C         -2.219987646712    -5.088757305254     2.142188948972    12.000000000000
           C         -2.359178556712    -5.413579315254     0.753674018972    12.000000000000
           C         -1.948732756712    -6.718118325254     0.311096688972    12.000000000000
           C         -1.241037426712    -6.829284335254    -0.918022131028    12.000000000000
           C         -0.966746446712    -5.635227145254    -1.668901091028    12.000000000000
           C          0.322222953288    -5.495005245254    -2.278726171028    12.000000000000
           C          1.273861253288    -6.555709485254    -2.107319031028    12.000000000000
           C          2.637549543288    -6.221781425254    -1.869458921028    12.000000000000
           C          3.497000043288    -7.219894065254    -1.297432171028    12.000000000000
           C          4.437716023288    -6.810930945254    -0.285743361028    12.000000000000
           C          5.004934143288    -7.796564845254     0.577707748972    12.000000000000
           C          5.146106763288    -7.470992885254     1.982323498972    12.000000000000
           C          4.706747313288    -6.185047485254     2.420674068972    12.000000000000
           C          3.989170053288    -6.073325275254     3.665619598972    12.000000000000
           C          3.734157713288    -7.251961675254     4.430119128972    12.000000000000
           C          2.429459023288    -7.396901295254     5.043139338972    12.000000000000
           C          1.478214003288    -6.348507965254     4.854406628972    12.000000000000
           C          0.099874603288    -6.686192875254     4.605538578972    12.000000000000
           C         -0.283541746712    -8.061388925254     4.550533018972    12.000000000000
           C         -1.235727296712    -8.462838525254     3.537866588972    12.000000000000
           C         -1.722521536712    -7.467424035254     2.642276758972    12.000000000000
           C         -1.864011416712    -7.802295445254     1.249140978972    12.000000000000
           C         -1.530921516712    -9.120793965254     0.799825958972    12.000000000000
           C         -0.793059396712    -9.227106165254    -0.446741841028    12.000000000000
           C         -0.473475336712    -8.019242605254    -1.149212581028    12.000000000000
           C          0.822223393288    -7.875023355254    -1.763406901028    12.000000000000
           C          1.768041043288    -8.938738105254    -1.659705981028    12.000000000000
           C          3.154234553288    -8.600661645254    -1.413797901028    12.000000000000
           C          4.087205323288    -9.544566475254    -0.864355961028    12.000000000000
           C          4.988595713288    -9.152989265254     0.104308638972    12.000000000000
           C          5.282580663288    -8.482481495254     2.993467348972    12.000000000000
           C          4.595177633288    -8.375765815254     4.184957348972    12.000000000000
           C          1.909590753288    -8.677291445254     5.436349408972    12.000000000000
           C          0.590374123288    -9.001530305254     5.193780748972    12.000000000000
           C         -1.437526846712    -9.821907705254     3.129940148972    12.000000000000
           C         -1.608639106712   -10.173543035254     1.800480648972    12.000000000000
           C         -0.015909156712   -10.382074145254    -0.815619021028    12.000000000000
           C          1.228808203288   -10.240836955254    -1.394957111028    12.000000000000
           H         -0.812056416712   -12.163035795254     1.345665838972     1.007825032070
           H         -2.335317726712   -12.149540985254     2.253341638972     1.007825032070
           H         -2.340982356712   -11.773495125254     0.512760978972     1.007825032070
           H         -0.319243286712    10.145418144746    -5.481966381028     1.007825032070
           H          1.265959383288    10.837604744746    -3.760953621028     1.007825032070
           H          1.474896653288    11.335339844746    -1.605767991028     1.007825032070
           H          0.264984913288    11.527971044746     0.504303568972     1.007825032070
           H         -1.729505006712    11.314041244746     1.460229998972     1.007825032070
           H         -4.064601426712    10.740723044746     1.044713628972     1.007825032070
           H         -5.507442246712    10.110806244746    -0.523338761028     1.007825032070
           H         -5.738028826712     9.564699644746    -2.890229291028     1.007825032070
           H         -4.636981576712     9.388819644746    -4.812045141028     1.007825032070
           H         -2.446117696712     9.623544944746    -5.860314351028     1.007825032070
           H          3.988544143288   -10.609081825254    -1.098105711028     1.007825032070
           H          5.583588583288    -9.916634385254     0.614493738972     1.007825032070
           H          5.811001813288    -9.413694375254     2.767365388972     1.007825032070
           H          4.595503753288    -9.224879965254     4.875232278972     1.007825032070
           H          2.590931793288    -9.458093535254     5.787713648972     1.007825032070
           H          0.258121843288   -10.031866835254     5.354426578972     1.007825032070
           H         -1.356575696712   -10.626605115254     3.870220308972     1.007825032070
           H         -0.340432546712   -11.380885345254    -0.523462541028     1.007825032070
           H          1.854574843288   -11.129484335254    -1.523894521028     1.007825032070
           H         -1.605674696712    -1.634263655254    -3.839118621028     1.007825032070

  Running in c1 symmetry.

  Rotational constants: A =      0.00067  B =      0.00018  C =      0.00018 [cm^-1]
  Rotational constants: A =     20.17798  B =      5.52754  C =      5.51039 [MHz]
  Nuclear repulsion = 42425.375589062576182

  Charge       = 0
  Multiplicity = 2
  Electrons    = 1049
  Nalpha       = 525
  Nbeta        = 524

  ==> Algorithm <==

  SCF Algorithm Type is DF.
  DIIS enabled.
  MOM disabled.
  Fractional occupation disabled.
  Guess Type is GWH.
  Energy threshold   = 1.00e-08
  Density threshold  = 1.00e-08
  Integral threshold = 0.00e+00

  ==> Primary Basis <==

  Basis Set: 6-31G(D)
    Blend: 6-31G(D)
    Number of shells: 1072
    Number of basis function: 2611
    Number of Cartesian functions: 2611
    Spherical Harmonics?: false
    Max angular momentum: 2

  ==> DFT Potential <==

   => PBE Composite Functional <= 

    PBE GGA Exchange-Correlation Functional

    J.P. Perdew et. al., Phys. Rev. Lett., 77(18), 3865-3868, 1996

    Points   =           5000
    Deriv    =              1
    GGA      =           TRUE
    Meta     =          FALSE

    X_LRC        =          FALSE
    X_Hybrid     =          FALSE
    X_Alpha      =   0.000000E+00
    X_Omega      =   0.000000E+00
    C_LRC        =          FALSE
    C_Hybrid     =          FALSE
    C_Alpha      =   0.000000E+00
    C_Omega      =   0.000000E+00

   => Exchange Functionals <=

    1.0000   PBE_X

   => Correlation Functionals <=

    1.0000   PBE_C

   => Molecular Quadrature <=

    Radial Scheme    =       TREUTLER
    Pruning Scheme   =           FLAT
    Nuclear Scheme   =       TREUTLER

    BS radius alpha  =              1
    Pruning alpha    =              1
    Radial Points    =             75
    Spherical Points =            302
    Total Points     =        4307687
    Total Blocks     =           3100
    Max Points       =           5000
    Max Functions    =            965

   => Loading Basis Set <=

    Name: (6-31G(D) AUX)
    Role: JKFIT
    Keyword: DF_BASIS_SCF
    atoms 1-171   entry C          line   120 file /usr/local/Dist/psi4conda/share/psi4/basis/cc-pvdz-jkfit.gbs 
    atoms 172-194 entry H          line    50 file /usr/local/Dist/psi4conda/share/psi4/basis/cc-pvdz-jkfit.gbs 

  ==> Pre-Iterations <==

   -------------------------------------------------------
    Irrep   Nso     Nmo     Nalpha   Nbeta   Ndocc  Nsocc
   -------------------------------------------------------
     A       2611    2611       0       0       0       0
   -------------------------------------------------------
    Total    2611    2611     525     524     524       1
   -------------------------------------------------------

  ==> Integral Setup <==

  ==> DFJK: Density-Fitted J/K Matrices <==

    J tasked:                  Yes
    K tasked:                   No
    wK tasked:                  No
    OpenMP threads:             10
    Integrals threads:          10
    Memory (MB):             14305
    Algorithm:                Disk
    Integral Cache:           NONE
    Schwarz Cutoff:          1E-12
    Fitting Condition:       1E-12

   => Auxiliary Basis Set <=

  Basis Set: (6-31G(D) AUX)
    Blend: CC-PVDZ-JKFIT
    Number of shells: 4311
    Number of basis function: 14426
    Number of Cartesian functions: 14426
    Spherical Harmonics?: false
    Max angular momentum: 3

  Minimum eigenvalue in the overlap matrix is 7.1835325111E-05.
  Using Symmetric Orthogonalization.

  SCF Guess: Generalized Wolfsberg-Helmholtz.

  ==> Iterations <==

                           Total Energy        Delta E     RMS |[F,P]|

   @DF-UKS iter   1: -2636.70601108297706   -2.63671e+03   1.10425e-01 
   @DF-UKS iter   2: 11963.23727465046250    1.45999e+04   1.03085e-01 DIIS
   @DF-UKS iter   3:  9482.37246542390494   -2.48086e+03   1.28239e-01 DIIS
   @DF-UKS iter   4: -2094.76973413873202   -1.15771e+04   7.53048e-02 DIIS
   @DF-UKS iter   5: -1223.02103464498941    8.71749e+02   6.40486e-02 DIIS
   @DF-UKS iter   6: 13957.17290822094219    1.51802e+04   1.18689e-01 DIIS
   @DF-UKS iter   7:   205.79653954147216   -1.37514e+04   7.10556e-02 DIIS
   @DF-UKS iter   8:  6827.47340450635966    6.62168e+03   1.04319e-01 DIIS
   @DF-UKS iter   9:  3198.86970738667878   -3.62860e+03   9.33926e-02 DIIS
   @DF-UKS iter  10: -2627.84053940268495   -5.82671e+03   7.12779e-02 DIIS
   @DF-UKS iter  11: -1020.19283822245779    1.60765e+03   7.33745e-02 DIIS
   @DF-UKS iter  12:   412.26653342353529    1.43246e+03   9.95720e-02 DIIS
   @DF-UKS iter  13:  5585.65343961634790    5.17339e+03   1.19798e-01 DIIS
   @DF-UKS iter  14: -5327.79971732669947   -1.09135e+04   4.77401e-02 DIIS
   @DF-UKS iter  15:   764.21261187400523    6.09201e+03   8.39051e-02 DIIS
   @DF-UKS iter  16:  1168.03070441011369    4.03818e+02   9.37029e-02 DIIS
   @DF-UKS iter  17:  2171.04863879003824    1.00302e+03   1.00255e-01 DIIS
   @DF-UKS iter  18: -3582.86901622173173   -5.75392e+03   6.08212e-02 DIIS
   @DF-UKS iter  19: -1999.20661565034243    1.58366e+03   7.38327e-02 DIIS
   @DF-UKS iter  20:  5852.71710551811702    7.85192e+03   1.05898e-01 DIIS
   @DF-UKS iter  21:  4513.71437371304637   -1.33900e+03   9.61974e-02 DIIS
   @DF-UKS iter  22:  5915.16461793806229    1.40145e+03   1.02334e-01 DIIS
   @DF-UKS iter  23:  5251.24845212503715   -6.63916e+02   1.00007e-01 DIIS
   @DF-UKS iter  24:  5743.30235714810260    4.92054e+02   1.01143e-01 DIIS
   @DF-UKS iter  25:  5435.34059991447430   -3.07962e+02   1.01530e-01 DIIS
   @DF-UKS iter  26:  5700.14094784489862    2.64800e+02   1.01082e-01 DIIS
   @DF-UKS iter  27:  5470.45241524277662   -2.29689e+02   1.01785e-01 DIIS
   @DF-UKS iter  28:  5665.40441749742604    1.94952e+02   1.01100e-01 DIIS
   @DF-UKS iter  29:  5502.14388124743709   -1.63261e+02   1.01637e-01 DIIS
   @DF-UKS iter  30:  5642.64800173966069    1.40504e+02   1.00797e-01 DIIS
   @DF-UKS iter  31:  5533.07280087833351   -1.09575e+02   1.01077e-01 DIIS
   @DF-UKS iter  32:  5615.25520095415413    8.21824e+01   1.00567e-01 DIIS
   @DF-UKS iter  33:  5552.59568464179756   -6.26595e+01   1.01908e-01 DIIS
   @DF-UKS iter  34:  5587.67458006161178    3.50789e+01   1.01317e-01 DIIS
   @DF-UKS iter  35:  5574.04821715628350   -1.36264e+01   1.01137e-01 DIIS
   @DF-UKS iter  36:  5575.02841367786459    9.80197e-01   1.01196e-01 DIIS
   @DF-UKS iter  37:  5575.93823949727084    9.09826e-01   1.00905e-01 DIIS
   @DF-UKS iter  38:  5574.96411138555413   -9.74128e-01   1.01272e-01 DIIS
   @DF-UKS iter  39:  5575.67056393272651    7.06453e-01   1.01361e-01 DIIS
   @DF-UKS iter  40:  5575.20658335166809   -4.63981e-01   1.01362e-01 DIIS
   @DF-UKS iter  41:  5575.50201507404563    2.95432e-01   1.01731e-01 DIIS
   @DF-UKS iter  42:  5575.31637905139360   -1.85636e-01   1.01270e-01 DIIS
   @DF-UKS iter  43:  5575.43237422067614    1.15995e-01   1.01362e-01 DIIS
   @DF-UKS iter  44:  5575.36017582110799   -7.21984e-02   1.00911e-01 DIIS
   @DF-UKS iter  45:  5575.40501733763085    4.48415e-02   1.01270e-01 DIIS
   @DF-UKS iter  46:  5575.37721200109809   -2.78053e-02   1.01180e-01 DIIS
   @DF-UKS iter  47:  5575.39443842770561    1.72264e-02   1.01090e-01 DIIS
   @DF-UKS iter  48:  5575.38377254363149   -1.06659e-02   1.01180e-01 DIIS
   @DF-UKS iter  49:  5575.39037441676192    6.60187e-03   1.01270e-01 DIIS
   @DF-UKS iter  50:  5575.38628887203231   -4.08554e-03   1.01090e-01 DIIS
   @DF-UKS iter  51:  5575.38881697000761    2.52810e-03   1.01180e-01 DIIS
   @DF-UKS iter  52:  5575.38725269366114   -1.56428e-03   1.01638e-01 DIIS
   @DF-UKS iter  53:  5575.38822057851212    9.67885e-04   1.01825e-01 DIIS
   @DF-UKS iter  54:  5575.38762171515555   -5.98863e-04   1.01000e-01 DIIS
   @DF-UKS iter  55:  5575.38799225068215    3.70536e-04   1.01180e-01 DIIS
   @DF-UKS iter  56:  5575.38776299078017   -2.29260e-04   1.01270e-01 DIIS
   @DF-UKS iter  57:  5575.38790484162746    1.41851e-04   1.00911e-01 DIIS
   @DF-UKS iter  58:  5575.38781707272574   -8.77689e-05   1.01000e-01 DIIS
   @DF-UKS iter  59:  5575.38787137622421    5.43035e-05   1.01090e-01 DIIS
   @DF-UKS iter  60:  5575.38783777795470   -3.35983e-05   1.01362e-01 DIIS
   @DF-UKS iter  61:  5575.38785856708273    2.07891e-05   1.01362e-01 DIIS
   @DF-UKS iter  62:  5575.38784570565622   -1.28614e-05   1.01270e-01 DIIS
   @DF-UKS iter  63:  5575.38785366271622    7.95706e-06   1.01180e-01 DIIS
   @DF-UKS iter  64:  5575.38784873836994   -4.92435e-06   1.00911e-01 DIIS
   @DF-UKS iter  65:  5575.38785178498802    3.04662e-06   1.01270e-01 DIIS
   @DF-UKS iter  66:  5575.38784990012937   -1.88486e-06   1.01000e-01 DIIS
   @DF-UKS iter  67:  5575.38785106626165    1.16613e-06   1.00911e-01 DIIS
   @DF-UKS iter  68:  5575.38785034482862   -7.21433e-07   1.01180e-01 DIIS
   @DF-UKS iter  69:  5575.38785079224181    4.47413e-07   1.00911e-01 DIIS
   @DF-UKS iter  70:  5575.38785051474406   -2.77498e-07   1.01825e-01 DIIS
   @DF-UKS iter  71:  5575.38785068703146    1.72287e-07   1.01000e-01 DIIS
   @DF-UKS iter  72:  5575.38785058115900   -1.05872e-07   1.01090e-01 DIIS
   @DF-UKS iter  73:  5575.38785064635158    6.51926e-08   1.00911e-01 DIIS
   @DF-UKS iter  74:  5575.38785060558439   -4.07672e-08   1.01180e-01 DIIS
   @DF-UKS iter  75:  5575.38785063103569    2.54513e-08   1.01270e-01 DIIS
   @DF-UKS iter  76:  5575.38785061481030   -1.62254e-08   1.01919e-01 DIIS
   @DF-UKS iter  77:  5575.38785062511306    1.03028e-08   1.01362e-01 DIIS
   @DF-UKS iter  78:  5575.38785061905946   -6.05360e-09   1.01090e-01 DIIS
   @DF-UKS iter  79:  5575.38785062315583    4.09636e-09   1.01090e-01 DIIS
   @DF-UKS iter  80:  5575.38785062050010   -2.65572e-09   1.01825e-01 DIIS
   @DF-UKS iter  81:  5575.38785062116949    6.69388e-10   1.01180e-01 DIIS
   @DF-UKS iter  82:  5575.38785062143143    2.61934e-10   1.01919e-01 DIIS
   @DF-UKS iter  83:  5575.38785062156967    1.38243e-10   1.01638e-01 DIIS
   @DF-UKS iter  84:  5575.38785062121315   -3.56522e-10   1.01825e-01 DIIS
   @DF-UKS iter  85:  5575.38785062139505    1.81899e-10   1.01545e-01 DIIS
   @DF-UKS iter  86:  5575.38785062098759   -4.07454e-10   1.01638e-01 DIIS
   @DF-UKS iter  87:  5575.38785062120587    2.18279e-10   1.01453e-01 DIIS
   @DF-UKS iter  88:  5575.38785062116222   -4.36557e-11   1.01919e-01 DIIS
   @DF-UKS iter  89:  5575.38785062135139    1.89175e-10   1.01090e-01 DIIS
   @DF-UKS iter  90:  5575.38785062125680   -9.45874e-11   1.01362e-01 DIIS
   @DF-UKS iter  91:  5575.38785062138777    1.30967e-10   1.01000e-01 DIIS
   @DF-UKS iter  92:  5575.38785062158422    1.96451e-10   1.01180e-01 DIIS
   @DF-UKS iter  93:  5575.38785062076931   -8.14907e-10   1.01090e-01 DIIS
   @DF-UKS iter  94:  5575.38785062098032    2.11003e-10   1.01090e-01 DIIS
   @DF-UKS iter  95:  5575.38785062183888    8.58563e-10   1.01919e-01 DIIS
   @DF-UKS iter  96:  5575.38785062140960   -4.29281e-10   1.01638e-01 DIIS
   @DF-UKS iter  97:  5575.38785062145325    4.36557e-11   1.01362e-01 DIIS
   @DF-UKS iter  98:  5575.38785062115494   -2.98314e-10   1.01180e-01 DIIS
   @DF-UKS iter  99:  5575.38785062088573   -2.69210e-10   1.01270e-01 DIIS
   @DF-UKS iter 100:  5575.38785062220995    1.32422e-09   1.01270e-01 DIIS

  ==> Post-Iterations <==

   @Spin Contamination Metric:   3.745754480E-03
   @S^2 Expected:                7.500000000E-01
   @S^2 Observed:                7.537457545E-01
   @S   Expected:                5.000000000E-01
   @S   Observed:                5.000000000E-01

  Failed to converge.
Iterations did not converge.
Traceback (most recent call last):
  File "/usr/local/Dist/psi4conda/bin/psi4", line 248, in <module>
    exec(content)
  File "<string>", line 222, in <module>
  File "/usr/local/Dist/psi4conda/lib//python2.7/site-packages/psi4/driver/driver.py", line 1050, in optimize
    G, wfn = gradient(lowername, return_wfn=True, molecule=moleculeclone, **kwargs)
  File "/usr/local/Dist/psi4conda/lib//python2.7/site-packages/psi4/driver/driver.py", line 606, in gradient
    wfn = procedures['gradient'][lowername](lowername, molecule=molecule, **kwargs)
  File "/usr/local/Dist/psi4conda/lib//python2.7/site-packages/psi4/driver/procrouting/proc.py", line 2876, in run_dft_gradient
    wfn = run_scf_gradient(name, **kwargs)
  File "/usr/local/Dist/psi4conda/lib//python2.7/site-packages/psi4/driver/procrouting/proc.py", line 1958, in run_scf_gradient
    ref_wfn = run_scf(name, **kwargs)
  File "/usr/local/Dist/psi4conda/lib//python2.7/site-packages/psi4/driver/procrouting/proc.py", line 1942, in run_scf
    scf_wfn = scf_helper(name, **kwargs)
  File "/usr/local/Dist/psi4conda/lib//python2.7/site-packages/psi4/driver/procrouting/proc.py", line 1330, in scf_helper
    e_scf = scf_wfn.compute_energy()

RuntimeError: 
Fatal Error: Iterations did not converge.
Error occurred in file: /scratch/psilocaluser/conda-builds/psi4_1495009270718/work/psi4/src/psi4/libparallel/process.cc on line: 194
The most recent 5 function calls were:

psi::PsiException::PsiException(std::__cxx11::basic_string<char, std::char_traits<char>, std::allocator<char> >, char const*, int)
psi::die_if_not_converged()
psi::scf::HF::finalize_E()
psi::scf::HF::compute_energy()


*** Psi4 encountered an error. Buy a developer more coffee!
*** Resources and help at github.com/psi4/psi4.
