
    -----------------------------------------------------------------------
          Psi4: An Open-Source Ab Initio Electronic Structure Package
                               Psi4 1.3a2.dev49 

                         Git: Rev {master} f687f49 


    R. M. Parrish, L. A. Burns, D. G. A. Smith, A. C. Simmonett,
    A. E. DePrince III, E. G. Hohenstein, U. Bozkaya, A. Yu. Sokolov,
    R. Di Remigio, R. M. Richard, J. F. Gonthier, A. M. James,
    H. R. McAlexander, A. Kumar, M. Saitow, X. Wang, B. P. Pritchard,
    P. Verma, H. F. Schaefer III, K. Patkowski, R. A. King, E. F. Valeev,
    F. A. Evangelista, J. M. Turney, T. D. Crawford, and C. D. Sherrill,
    J. Chem. Theory Comput. 13(7) pp 3185--3197 (2017).
    (doi: 10.1021/acs.jctc.7b00174)


                         Additional Contributions by
    P. Kraus, H. Kruse, M. H. Lechner, M. C. Schieber, and R. A. Shaw

    -----------------------------------------------------------------------


    Psi4 started on: Wednesday, 22 July 2020 12:37PM

    Process ID: 32227
    Host:       atom
    PSIDATADIR: /home/localadmin/miniconda/envs/p4env/share/psi4
    Memory:     500.0 MiB
    Threads:    1
    
  ==> Input File <==

--------------------------------------------------------------------------
import psi4
psi4.set_memory(3e9)
psi4.set_options({'geom_maxiter':100})
cnt=psi4.geometry("""
0 1
C          5.95114        4.40209        0.00000
C          5.65503        5.79189        0.00000
C          5.29997        6.40620        1.23118
C          4.24350        7.35653        1.23118
C          3.59517        7.64481        0.00000
C          2.18188        7.79266        0.00000
C          1.48792        7.64481        1.23118
C          0.25764        6.93371        1.23118
C         -0.21687        6.40620        0.00000
C         -0.79422        5.10777        0.00000
C         -0.86805        4.40209        1.23118
C         -0.57194        3.01228        1.23118
C         -0.21687        2.39798        0.00000
C          0.83959        1.44765        0.00000
C          1.48792        1.15937        1.23118
C          2.90121        1.01152        1.23118
C          3.59517        1.15937        0.00000
C          4.82545        1.87046        0.00000
C          5.29997        2.39798        1.23118
C          5.87732        3.69641        1.23118
C          5.95114        4.40209        2.46236
C          5.65503        5.79189        2.46236
C          5.29997        6.40620        3.69354
C          4.24350        7.35653        3.69354
C          3.59517        7.64481        2.46236
C          2.18188        7.79266        2.46236
C          1.48792        7.64481        3.69354
C          0.25764        6.93371        3.69354
C         -0.21687        6.40620        2.46236
C         -0.79422        5.10777        2.46236
C         -0.86805        4.40209        3.69354
C         -0.57194        3.01228        3.69354
C         -0.21687        2.39798        2.46236
C          0.83959        1.44765        2.46236
C          1.48792        1.15937        3.69354
C          2.90121        1.01152        3.69354
C          3.59517        1.15937        2.46236
C          4.82545        1.87046        2.46236
C          5.29997        2.39798        3.69354
C          5.87732        3.69641        3.69354
C          5.95114        4.40209        4.92472
C          5.65503        5.79189        4.92472
C          3.59517        7.64481        4.92472
C          2.18188        7.79266        4.92472
C         -0.21687        6.40620        4.92472
C         -0.79422        5.10777        4.92472
C         -0.21687        2.39798        4.92472
C          0.83959        1.44765        4.92472
C          3.59517        1.15937        4.92472
C          4.82545        1.87046        4.92472
H          6.21331        3.91727       -0.87250
H          5.69681        6.34147       -0.87250
H          4.13727        7.74432       -0.87250
H          1.67212        8.00222       -0.87250
H         -0.14400        6.95252       -0.87250
H         -1.15105        4.68772       -0.87250
H         -0.71393        2.63611       -0.87250
H          1.12883        0.97848       -0.87250
H          3.21510        0.76022       -0.87250
H          5.36103        2.00056       -0.87250
H          6.21331        3.91727        5.79721
H          5.69681        6.34147        5.79721
H          4.13727        7.74432        5.79721
H          1.67212        8.00222        5.79721
H         -0.14400        6.95252        5.79721
H         -1.15105        4.68772        5.79721
H         -0.71393        2.63611        5.79721
H          1.12883        0.97848        5.79721
H          3.21510        0.76022        5.79721
C          5.36103        2.00056        5.79721
H          6.25082        2.55750        5.58984
H          5.62421        1.04485        6.20003
H          4.76338        2.53421        6.50639
""")

psi4.optimize('pbe/6-31G(D)',molecule=cnt)
--------------------------------------------------------------------------

  Memory set to   2.794 GiB by Python driver.
gradient() will perform analytic gradient computation.

*** tstart() called on atom
*** at Wed Jul 22 12:37:04 2020

   => Loading Basis Set <=

    Name: 6-31G(D)
    Role: ORBITAL
    Keyword: BASIS
    atoms 1-50, 70     entry C          line   111 file /home/localadmin/miniconda/envs/p4env/share/psi4/basis/6-31g_d_.gbs 
    atoms 51-69, 71-73 entry H          line    44 file /home/localadmin/miniconda/envs/p4env/share/psi4/basis/6-31g_d_.gbs 


         ---------------------------------------------------------
                                   SCF
            by Justin Turney, Rob Parrish, Andy Simmonett
                             and Daniel Smith
                              RKS Reference
                        1 Threads,   2861 MiB Core
         ---------------------------------------------------------

  ==> Geometry <==

    Molecular point group: c1
    Full point group: C1

    Geometry (in Angstrom), charge = 0, multiplicity = 1:

       Center              X                  Y                   Z               Mass       
    ------------   -----------------  -----------------  -----------------  -----------------
         C            3.346398246407     0.052862316293    -2.537500005028    12.000000000000
         C            3.050288246407     1.442662316293    -2.537500005028    12.000000000000
         C            2.695228246407     2.056972316293    -1.306320005028    12.000000000000
         C            1.638758246407     3.007302316293    -1.306320005028    12.000000000000
         C            0.990428246407     3.295582316293    -2.537500005028    12.000000000000
         C           -0.422861753593     3.443432316293    -2.537500005028    12.000000000000
         C           -1.116821753593     3.295582316293    -1.306320005028    12.000000000000
         C           -2.347101753593     2.584482316293    -1.306320005028    12.000000000000
         C           -2.821611753593     2.056972316293    -2.537500005028    12.000000000000
         C           -3.398961753593     0.758542316293    -2.537500005028    12.000000000000
         C           -3.472791753593     0.052862316293    -1.306320005028    12.000000000000
         C           -3.176681753593    -1.336947683707    -1.306320005028    12.000000000000
         C           -2.821611753593    -1.951247683707    -2.537500005028    12.000000000000
         C           -1.765151753593    -2.901577683707    -2.537500005028    12.000000000000
         C           -1.116821753593    -3.189857683707    -1.306320005028    12.000000000000
         C            0.296468246407    -3.337707683707    -1.306320005028    12.000000000000
         C            0.990428246407    -3.189857683707    -2.537500005028    12.000000000000
         C            2.220708246407    -2.478767683707    -2.537500005028    12.000000000000
         C            2.695228246407    -1.951247683707    -1.306320005028    12.000000000000
         C            3.272578246407    -0.652817683707    -1.306320005028    12.000000000000
         C            3.346398246407     0.052862316293    -0.075140005028    12.000000000000
         C            3.050288246407     1.442662316293    -0.075140005028    12.000000000000
         C            2.695228246407     2.056972316293     1.156039994972    12.000000000000
         C            1.638758246407     3.007302316293     1.156039994972    12.000000000000
         C            0.990428246407     3.295582316293    -0.075140005028    12.000000000000
         C           -0.422861753593     3.443432316293    -0.075140005028    12.000000000000
         C           -1.116821753593     3.295582316293     1.156039994972    12.000000000000
         C           -2.347101753593     2.584482316293     1.156039994972    12.000000000000
         C           -2.821611753593     2.056972316293    -0.075140005028    12.000000000000
         C           -3.398961753593     0.758542316293    -0.075140005028    12.000000000000
         C           -3.472791753593     0.052862316293     1.156039994972    12.000000000000
         C           -3.176681753593    -1.336947683707     1.156039994972    12.000000000000
         C           -2.821611753593    -1.951247683707    -0.075140005028    12.000000000000
         C           -1.765151753593    -2.901577683707    -0.075140005028    12.000000000000
         C           -1.116821753593    -3.189857683707     1.156039994972    12.000000000000
         C            0.296468246407    -3.337707683707     1.156039994972    12.000000000000
         C            0.990428246407    -3.189857683707    -0.075140005028    12.000000000000
         C            2.220708246407    -2.478767683707    -0.075140005028    12.000000000000
         C            2.695228246407    -1.951247683707     1.156039994972    12.000000000000
         C            3.272578246407    -0.652817683707     1.156039994972    12.000000000000
         C            3.346398246407     0.052862316293     2.387219994972    12.000000000000
         C            3.050288246407     1.442662316293     2.387219994972    12.000000000000
         C            0.990428246407     3.295582316293     2.387219994972    12.000000000000
         C           -0.422861753593     3.443432316293     2.387219994972    12.000000000000
         C           -2.821611753593     2.056972316293     2.387219994972    12.000000000000
         C           -3.398961753593     0.758542316293     2.387219994972    12.000000000000
         C           -2.821611753593    -1.951247683707     2.387219994972    12.000000000000
         C           -1.765151753593    -2.901577683707     2.387219994972    12.000000000000
         C            0.990428246407    -3.189857683707     2.387219994972    12.000000000000
         C            2.220708246407    -2.478767683707     2.387219994972    12.000000000000
         H            3.608568246407    -0.431957683707    -3.410000005028     1.007825032070
         H            3.092068246407     1.992242316293    -3.410000005028     1.007825032070
         H            1.532528246407     3.395092316293    -3.410000005028     1.007825032070
         H           -0.932621753593     3.652992316293    -3.410000005028     1.007825032070
         H           -2.748741753593     2.603292316293    -3.410000005028     1.007825032070
         H           -3.755791753593     0.338492316293    -3.410000005028     1.007825032070
         H           -3.318671753593    -1.713117683707    -3.410000005028     1.007825032070
         H           -1.475911753593    -3.370747683707    -3.410000005028     1.007825032070
         H            0.610358246407    -3.589007683707    -3.410000005028     1.007825032070
         H            2.756288246407    -2.348667683707    -3.410000005028     1.007825032070
         H            3.608568246407    -0.431957683707     3.259709994972     1.007825032070
         H            3.092068246407     1.992242316293     3.259709994972     1.007825032070
         H            1.532528246407     3.395092316293     3.259709994972     1.007825032070
         H           -0.932621753593     3.652992316293     3.259709994972     1.007825032070
         H           -2.748741753593     2.603292316293     3.259709994972     1.007825032070
         H           -3.755791753593     0.338492316293     3.259709994972     1.007825032070
         H           -3.318671753593    -1.713117683707     3.259709994972     1.007825032070
         H           -1.475911753593    -3.370747683707     3.259709994972     1.007825032070
         H            0.610358246407    -3.589007683707     3.259709994972     1.007825032070
         C            2.756288246407    -2.348667683707     3.259709994972    12.000000000000
         H            3.646078246407    -1.791727683707     3.052339994972     1.007825032070
         H            3.019468246407    -3.304377683707     3.662529994972     1.007825032070
         H            2.158638246407    -1.815017683707     3.968889994972     1.007825032070

  Running in c1 symmetry.

  Rotational constants: A =      0.00290  B =      0.00280  C =      0.00226 [cm^-1]
  Rotational constants: A =     86.96977  B =     83.95074  C =     67.71535 [MHz]
  Nuclear repulsion = 6458.913911593833291

  Charge       = 0
  Multiplicity = 1
  Electrons    = 328
  Nalpha       = 164
  Nbeta        = 164

  ==> Algorithm <==

  SCF Algorithm Type is DF.
  DIIS enabled.
  MOM disabled.
  Fractional occupation disabled.
  Guess Type is SAD.
  Energy threshold   = 1.00e-08
  Density threshold  = 1.00e-08
  Integral threshold = 0.00e+00

  ==> Primary Basis <==

  Basis Set: 6-31G(D)
    Blend: 6-31G(D)
    Number of shells: 350
    Number of basis function: 809
    Number of Cartesian functions: 809
    Spherical Harmonics?: false
    Max angular momentum: 2

  ==> DFT Potential <==

   => Composite Functional: PBE <= 

    PBE GGA Exchange-Correlation Functional

    J.P. Perdew et. al., Phys. Rev. Lett., 77(18), 3865-3868, 1996


    Deriv               =              1
    GGA                 =           TRUE
    Meta                =          FALSE

    Exchange Hybrid     =          FALSE
    MP2 Hybrid          =          FALSE

   => Exchange Functionals <=

    1.0000     XC_GGA_X_PBE

   => Correlation Functionals <=

    1.0000     XC_GGA_C_PBE

   => Molecular Quadrature <=

    Radial Scheme          =       TREUTLER
    Pruning Scheme         =           FLAT
    Nuclear Scheme         =       TREUTLER

    BS radius alpha        =              1
    Pruning alpha          =              1
    Radial Points          =             75
    Spherical Points       =            302
    Total Points           =        1618906
    Total Blocks           =          11174
    Max Points             =            256
    Max Functions          =            542

   => Loading Basis Set <=

    Name: (6-31G(D) AUX)
    Role: JKFIT
    Keyword: DF_BASIS_SCF
    atoms 1-50, 70     entry C          line   121 file /home/localadmin/miniconda/envs/p4env/share/psi4/basis/cc-pvdz-jkfit.gbs 
    atoms 51-69, 71-73 entry H          line    51 file /home/localadmin/miniconda/envs/p4env/share/psi4/basis/cc-pvdz-jkfit.gbs 

  ==> Pre-Iterations <==

   -------------------------------------------------------
    Irrep   Nso     Nmo     Nalpha   Nbeta   Ndocc  Nsocc
   -------------------------------------------------------
     A        809     809       0       0       0       0
   -------------------------------------------------------
    Total     809     809     164     164     164       0
   -------------------------------------------------------

  ==> Integral Setup <==

  ==> DiskDFJK: Density-Fitted J/K Matrices <==

    J tasked:                  Yes
    K tasked:                   No
    wK tasked:                  No
    OpenMP threads:              1
    Integrals threads:           1
    Memory [MiB]:             1931
    Algorithm:                Disk
    Integral Cache:           NONE
    Schwarz Cutoff:          1E-12
    Fitting Condition:       1E-12

   => Auxiliary Basis Set <=

  Basis Set: (6-31G(D) AUX)
    Blend: CC-PVDZ-JKFIT
    Number of shells: 1422
    Number of basis function: 4681
    Number of Cartesian functions: 4681
    Spherical Harmonics?: false
    Max angular momentum: 3

  Cached 1.7% of DFT collocation blocks in 217 MiB.

  Minimum eigenvalue in the overlap matrix is 1.6660549591E-04.
  Using Symmetric Orthogonalization.

  SCF Guess: Superposition of Atomic Densities via on-the-fly atomic UHF.

  ==> Iterations <==

                           Total Energy        Delta E     RMS |[F,P]|

   @DF-RKS iter   0: -1962.72151147182990   -1.96272e+03   1.50791e-02 
   @DF-RKS iter   1: -1952.59800391053295    1.01235e+01   1.82035e-03 
   @DF-RKS iter   2: -1951.70780616421780    8.90198e-01   2.39517e-03 DIIS
   @DF-RKS iter   3: -1953.08227230443754   -1.37447e+00   1.27973e-03 DIIS
   @DF-RKS iter   4: -1953.62314804872562   -5.40876e-01   5.76391e-04 DIIS
   @DF-RKS iter   5: -1953.69688875746328   -7.37407e-02   4.24898e-04 DIIS
   @DF-RKS iter   6: -1953.76039325570810   -6.35045e-02   2.00447e-04 DIIS
   @DF-RKS iter   7: -1953.77150582112063   -1.11126e-02   1.10373e-04 DIIS
   @DF-RKS iter   8: -1953.77601881817964   -4.51300e-03   3.70653e-05 DIIS
   @DF-RKS iter   9: -1953.77649856434618   -4.79746e-04   1.74524e-05 DIIS
   @DF-RKS iter  10: -1953.77661096670317   -1.12402e-04   5.51439e-06 DIIS
   @DF-RKS iter  11: -1953.77661802598368   -7.05928e-06   3.57828e-06 DIIS
   @DF-RKS iter  12: -1953.77662320286481   -5.17688e-06   1.25604e-06 DIIS
   @DF-RKS iter  13: -1953.77662387378678   -6.70922e-07   3.72042e-07 DIIS
   @DF-RKS iter  14: -1953.77662390725004   -3.34633e-08   2.54746e-07 DIIS
   @DF-RKS iter  15: -1953.77662393221749   -2.49674e-08   5.11447e-08 DIIS
   @DF-RKS iter  16: -1953.77662393011292    2.10457e-09   8.24362e-08 DIIS
   @DF-RKS iter  17: -1953.77662393215587   -2.04295e-09   4.93456e-08 DIIS
   @DF-RKS iter  18: -1953.77662393278524   -6.29370e-10   3.33262e-08 DIIS
   @DF-RKS iter  19: -1953.77662393316609   -3.80851e-10   5.52224e-09 DIIS
  Energy converged.


  ==> Post-Iterations <==

    Orbital Energies [Eh]
    ---------------------

    Doubly Occupied:                                                      

       1A     -9.913430     2A     -9.911226     3A     -9.910262  
       4A     -9.909277     5A     -9.909138     6A     -9.908993  
       7A     -9.908887     8A     -9.908702     9A     -9.908642  
      10A     -9.908571    11A     -9.908169    12A     -9.908090  
      13A     -9.907950    14A     -9.907798    15A     -9.907658  
      16A     -9.907533    17A     -9.907251    18A     -9.906949  
      19A     -9.906674    20A     -9.906380    21A     -9.906168  
      22A     -9.906120    23A     -9.905941    24A     -9.905861  
      25A     -9.905554    26A     -9.904640    27A     -9.903702  
      28A     -9.903673    29A     -9.903394    30A     -9.903020  
      31A     -9.901599    32A     -9.901414    33A     -9.901236  
      34A     -9.901212    35A     -9.900940    36A     -9.900854  
      37A     -9.900543    38A     -9.899997    39A     -9.899983  
      40A     -9.899664    41A     -9.899488    42A     -9.899403  
      43A     -9.899275    44A     -9.898729    45A     -9.898400  
      46A     -9.898367    47A     -9.897980    48A     -9.896476  
      49A     -9.886197    50A     -9.880603    51A     -9.862698  
      52A     -0.852543    53A     -0.825921    54A     -0.818218  
      55A     -0.811776    56A     -0.790069    57A     -0.787126  
      58A     -0.767928    59A     -0.760959    60A     -0.752210  
      61A     -0.744820    62A     -0.742326    63A     -0.735031  
      64A     -0.723593    65A     -0.693360    66A     -0.689749  
      67A     -0.687320    68A     -0.685975    69A     -0.682410  
      70A     -0.679003    71A     -0.670457    72A     -0.662691  
      73A     -0.646813    74A     -0.641070    75A     -0.631948  
      76A     -0.626623    77A     -0.602259    78A     -0.592164  
      79A     -0.588786    80A     -0.584487    81A     -0.581434  
      82A     -0.570659    83A     -0.560823    84A     -0.554389  
      85A     -0.547606    86A     -0.546260    87A     -0.532110  
      88A     -0.529414    89A     -0.525662    90A     -0.514244  
      91A     -0.504194    92A     -0.493642    93A     -0.492020  
      94A     -0.474423    95A     -0.471514    96A     -0.465982  
      97A     -0.463986    98A     -0.462534    99A     -0.458095  
     100A     -0.453499   101A     -0.449080   102A     -0.442480  
     103A     -0.437505   104A     -0.431738   105A     -0.427910  
     106A     -0.419694   107A     -0.418340   108A     -0.407608  
     109A     -0.399774   110A     -0.396654   111A     -0.396547  
     112A     -0.393086   113A     -0.389763   114A     -0.388029  
     115A     -0.386675   116A     -0.384602   117A     -0.382165  
     118A     -0.380583   119A     -0.379270   120A     -0.373866  
     121A     -0.364059   122A     -0.361288   123A     -0.359536  
     124A     -0.358032   125A     -0.352132   126A     -0.350337  
     127A     -0.349525   128A     -0.348959   129A     -0.344124  
     130A     -0.343705   131A     -0.341750   132A     -0.340919  
     133A     -0.337968   134A     -0.320563   135A     -0.316828  
     136A     -0.309919   137A     -0.309788   138A     -0.300007  
     139A     -0.293632   140A     -0.289249   141A     -0.287527  
     142A     -0.277165   143A     -0.275987   144A     -0.275323  
     145A     -0.274794   146A     -0.273395   147A     -0.267577  
     148A     -0.263529   149A     -0.262467   150A     -0.259988  
     151A     -0.248291   152A     -0.228326   153A     -0.223003  
     154A     -0.221632   155A     -0.220052   156A     -0.214126  
     157A     -0.210444   158A     -0.210072   159A     -0.206644  
     160A     -0.194299   161A     -0.171027   162A     -0.166470  
     163A     -0.163851   164A     -0.134539  

    Virtual:                                                              

     165A     -0.097998   166A     -0.072465   167A     -0.072163  
     168A     -0.068831   169A     -0.061458   170A     -0.059885  
     171A     -0.034879   172A     -0.031452   173A     -0.029013  
     174A     -0.025474   175A     -0.024894   176A     -0.023448  
     177A     -0.007037   178A      0.007407   179A      0.009585  
     180A      0.038472   181A      0.040769   182A      0.049136  
     183A      0.054348   184A      0.076341   185A      0.078454  
     186A      0.079910   187A      0.081473   188A      0.082761  
     189A      0.084771   190A      0.087647   191A      0.097002  
     192A      0.100715   193A      0.104368   194A      0.106304  
     195A      0.109366   196A      0.110745   197A      0.112897  
     198A      0.114430   199A      0.116511   200A      0.121454  
     201A      0.148980   202A      0.172448   203A      0.175153  
     204A      0.178631   205A      0.186822   206A      0.188549  
     207A      0.192171   208A      0.192732   209A      0.195500  
     210A      0.198174   211A      0.203994   212A      0.208312  
     213A      0.212712   214A      0.213989   215A      0.216128  
     216A      0.221332   217A      0.229909   218A      0.232090  
     219A      0.236750   220A      0.237471   221A      0.244832  
     222A      0.246800   223A      0.247807   224A      0.248630  
     225A      0.254157   226A      0.255188   227A      0.258147  
     228A      0.259688   229A      0.264199   230A      0.280675  
     231A      0.281924   232A      0.290972   233A      0.293428  
     234A      0.299198   235A      0.303065   236A      0.303683  
     237A      0.307833   238A      0.312038   239A      0.314992  
     240A      0.318497   241A      0.325618   242A      0.332390  
     243A      0.342183   244A      0.345990   245A      0.354692  
     246A      0.356475   247A      0.359837   248A      0.369807  
     249A      0.376794   250A      0.393585   251A      0.404066  
     252A      0.414438   253A      0.423110   254A      0.426079  
     255A      0.427209   256A      0.431230   257A      0.444812  
     258A      0.446524   259A      0.450604   260A      0.451621  
     261A      0.453674   262A      0.454585   263A      0.458982  
     264A      0.464337   265A      0.468018   266A      0.472329  
     267A      0.476532   268A      0.478487   269A      0.486572  
     270A      0.488128   271A      0.494978   272A      0.495410  
     273A      0.498191   274A      0.498783   275A      0.500924  
     276A      0.501755   277A      0.504803   278A      0.506454  
     279A      0.507639   280A      0.508448   281A      0.508901  
     282A      0.512170   283A      0.514270   284A      0.517010  
     285A      0.521023   286A      0.522719   287A      0.523168  
     288A      0.525664   289A      0.525849   290A      0.527079  
     291A      0.528740   292A      0.530619   293A      0.531505  
     294A      0.533206   295A      0.534829   296A      0.536354  
     297A      0.539707   298A      0.542218   299A      0.543198  
     300A      0.544763   301A      0.546179   302A      0.548389  
     303A      0.551211   304A      0.552174   305A      0.555775  
     306A      0.558072   307A      0.559452   308A      0.560126  
     309A      0.564485   310A      0.566230   311A      0.569999  
     312A      0.571505   313A      0.572917   314A      0.574343  
     315A      0.575037   316A      0.578468   317A      0.579315  
     318A      0.581139   319A      0.588428   320A      0.590522  
     321A      0.601258   322A      0.602251   323A      0.605195  
     324A      0.612110   325A      0.614754   326A      0.615410  
     327A      0.621544   328A      0.624354   329A      0.625217  
     330A      0.627645   331A      0.630261   332A      0.634692  
     333A      0.637466   334A      0.641623   335A      0.644345  
     336A      0.650441   337A      0.654712   338A      0.657065  
     339A      0.659781   340A      0.661435   341A      0.664984  
     342A      0.666993   343A      0.668496   344A      0.673695  
     345A      0.687250   346A      0.693164   347A      0.698737  
     348A      0.702340   349A      0.705110   350A      0.715897  
     351A      0.729939   352A      0.731421   353A      0.734337  
     354A      0.736101   355A      0.739553   356A      0.742401  
     357A      0.746485   358A      0.754535   359A      0.765469  
     360A      0.767421   361A      0.768349   362A      0.770739  
     363A      0.774157   364A      0.775913   365A      0.778827  
     366A      0.780716   367A      0.788508   368A      0.789349  
     369A      0.794845   370A      0.800149   371A      0.802921  
     372A      0.808223   373A      0.820278   374A      0.822345  
     375A      0.825310   376A      0.826099   377A      0.834232  
     378A      0.838110   379A      0.842398   380A      0.846551  
     381A      0.853900   382A      0.858503   383A      0.863364  
     384A      0.864550   385A      0.868621   386A      0.869576  
     387A      0.872961   388A      0.878096   389A      0.879906  
     390A      0.880078   391A      0.882014   392A      0.883203  
     393A      0.886122   394A      0.887800   395A      0.892520  
     396A      0.893350   397A      0.896673   398A      0.900243  
     399A      0.903271   400A      0.906185   401A      0.909750  
     402A      0.912142   403A      0.919283   404A      0.925823  
     405A      0.930192   406A      0.933350   407A      0.938039  
     408A      0.941493   409A      0.948166   410A      0.955209  
     411A      0.958246   412A      0.967075   413A      0.972134  
     414A      0.973724   415A      0.978375   416A      0.981648  
     417A      0.985762   418A      0.993376   419A      0.995177  
     420A      0.998342   421A      1.006727   422A      1.014334  
     423A      1.019325   424A      1.020248   425A      1.028853  
     426A      1.036516   427A      1.041240   428A      1.043052  
     429A      1.044312   430A      1.045767   431A      1.048513  
     432A      1.054893   433A      1.061615   434A      1.075463  
     435A      1.076386   436A      1.083038   437A      1.089688  
     438A      1.091991   439A      1.092863   440A      1.094511  
     441A      1.105549   442A      1.106827   443A      1.116496  
     444A      1.121733   445A      1.124513   446A      1.137208  
     447A      1.143636   448A      1.150152   449A      1.154231  
     450A      1.155890   451A      1.167292   452A      1.167867  
     453A      1.176306   454A      1.182001   455A      1.184916  
     456A      1.195216   457A      1.201108   458A      1.207725  
     459A      1.213614   460A      1.223170   461A      1.226590  
     462A      1.235728   463A      1.239954   464A      1.252900  
     465A      1.263898   466A      1.270692   467A      1.271827  
     468A      1.279292   469A      1.282959   470A      1.290316  
     471A      1.293148   472A      1.296331   473A      1.297369  
     474A      1.303146   475A      1.312783   476A      1.317641  
     477A      1.331596   478A      1.333362   479A      1.334580  
     480A      1.335844   481A      1.336324   482A      1.337454  
     483A      1.348911   484A      1.354862   485A      1.364913  
     486A      1.374378   487A      1.377210   488A      1.386438  
     489A      1.389155   490A      1.390636   491A      1.393660  
     492A      1.400156   493A      1.402735   494A      1.404468  
     495A      1.411985   496A      1.424770   497A      1.429085  
     498A      1.446790   499A      1.451767   500A      1.452736  
     501A      1.454558   502A      1.463443   503A      1.466294  
     504A      1.469638   505A      1.475654   506A      1.479990  
     507A      1.492959   508A      1.495811   509A      1.497744  
     510A      1.500075   511A      1.505680   512A      1.510114  
     513A      1.514238   514A      1.526812   515A      1.526901  
     516A      1.536223   517A      1.538520   518A      1.539761  
     519A      1.545281   520A      1.563957   521A      1.568815  
     522A      1.570452   523A      1.575027   524A      1.579082  
     525A      1.584694   526A      1.589314   527A      1.591074  
     528A      1.625725   529A      1.631669   530A      1.636811  
     531A      1.638089   532A      1.640999   533A      1.651257  
     534A      1.667312   535A      1.668715   536A      1.671513  
     537A      1.684357   538A      1.689483   539A      1.694198  
     540A      1.699240   541A      1.706680   542A      1.731440  
     543A      1.736530   544A      1.740248   545A      1.743782  
     546A      1.745623   547A      1.746493   548A      1.747198  
     549A      1.758903   550A      1.759589   551A      1.765044  
     552A      1.772120   553A      1.775251   554A      1.780341  
     555A      1.786344   556A      1.790335   557A      1.792271  
     558A      1.803179   559A      1.805654   560A      1.814060  
     561A      1.816088   562A      1.820328   563A      1.822474  
     564A      1.833413   565A      1.839987   566A      1.848908  
     567A      1.855759   568A      1.859351   569A      1.863456  
     570A      1.864456   571A      1.872331   572A      1.874340  
     573A      1.879834   574A      1.882750   575A      1.888029  
     576A      1.902260   577A      1.905791   578A      1.911473  
     579A      1.919437   580A      1.924876   581A      1.931389  
     582A      1.935686   583A      1.941174   584A      1.943485  
     585A      1.947348   586A      1.949035   587A      1.950676  
     588A      1.955270   589A      1.955686   590A      1.964091  
     591A      1.967632   592A      1.972463   593A      1.980934  
     594A      1.991489   595A      1.993334   596A      1.999620  
     597A      2.000481   598A      2.002509   599A      2.005193  
     600A      2.007955   601A      2.017770   602A      2.026779  
     603A      2.033414   604A      2.043181   605A      2.046009  
     606A      2.049677   607A      2.068607   608A      2.075710  
     609A      2.081985   610A      2.084400   611A      2.085364  
     612A      2.092865   613A      2.098716   614A      2.103115  
     615A      2.112134   616A      2.112730   617A      2.117321  
     618A      2.120458   619A      2.123870   620A      2.125976  
     621A      2.127450   622A      2.131216   623A      2.134668  
     624A      2.139756   625A      2.145684   626A      2.149431  
     627A      2.155501   628A      2.159003   629A      2.164012  
     630A      2.168719   631A      2.177872   632A      2.185667  
     633A      2.192733   634A      2.194730   635A      2.202292  
     636A      2.204177   637A      2.208406   638A      2.213895  
     639A      2.217280   640A      2.218301   641A      2.224436  
     642A      2.239378   643A      2.243451   644A      2.249535  
     645A      2.255183   646A      2.268348   647A      2.278224  
     648A      2.284987   649A      2.293870   650A      2.301347  
     651A      2.308926   652A      2.338915   653A      2.344043  
     654A      2.348943   655A      2.359683   656A      2.367385  
     657A      2.373113   658A      2.378845   659A      2.383215  
     660A      2.411499   661A      2.413252   662A      2.427516  
     663A      2.434264   664A      2.438523   665A      2.440199  
     666A      2.442495   667A      2.446331   668A      2.448983  
     669A      2.454377   670A      2.465493   671A      2.473320  
     672A      2.481437   673A      2.489789   674A      2.496250  
     675A      2.498282   676A      2.504113   677A      2.506487  
     678A      2.515844   679A      2.524122   680A      2.536181  
     681A      2.545534   682A      2.555566   683A      2.560576  
     684A      2.563323   685A      2.572514   686A      2.582478  
     687A      2.590615   688A      2.592277   689A      2.594609  
     690A      2.604035   691A      2.610908   692A      2.615500  
     693A      2.625186   694A      2.634700   695A      2.640476  
     696A      2.645156   697A      2.648319   698A      2.651928  
     699A      2.657186   700A      2.660464   701A      2.663628  
     702A      2.665485   703A      2.677440   704A      2.684860  
     705A      2.688148   706A      2.693920   707A      2.696165  
     708A      2.700386   709A      2.709200   710A      2.709801  
     711A      2.714177   712A      2.722657   713A      2.726937  
     714A      2.739880   715A      2.746825   716A      2.748147  
     717A      2.750011   718A      2.759967   719A      2.782849  
     720A      2.789736   721A      2.792068   722A      2.793236  
     723A      2.802053   724A      2.803898   725A      2.805789  
     726A      2.812269   727A      2.819207   728A      2.824479  
     729A      2.833741   730A      2.841856   731A      2.847946  
     732A      2.900267   733A      2.909980   734A      2.926706  
     735A      2.961743   736A      2.969403   737A      2.972896  
     738A      2.976740   739A      2.984858   740A      3.027396  
     741A      3.047873   742A      3.061082   743A      3.068697  
     744A      3.173881   745A      3.188159   746A      3.199523  
     747A      3.210325   748A      3.221493   749A      3.229123  
     750A      3.264246   751A      3.373536   752A      3.392904  
     753A      3.408772   754A      3.411567   755A      3.428854  
     756A      3.484109   757A      3.504254   758A      3.738557  
     759A      4.001559   760A      4.005782   761A      4.006533  
     762A      4.009150   763A      4.015672   764A      4.017259  
     765A      4.018358   766A      4.023151   767A      4.036106  
     768A      4.038933   769A      4.046240   770A      4.057854  
     771A      4.058639   772A      4.060632   773A      4.067979  
     774A      4.078658   775A      4.080809   776A      4.083477  
     777A      4.098618   778A      4.112189   779A      4.126934  
     780A      4.136640   781A      4.166469   782A      4.168273  
     783A      4.214025   784A      4.260654   785A      4.260807  
     786A      4.264701   787A      4.265292   788A      4.277336  
     789A      4.287907   790A      4.313512   791A      4.324125  
     792A      4.350058   793A      4.360225   794A      4.367982  
     795A      4.372883   796A      4.392733   797A      4.415140  
     798A      4.436649   799A      4.473583   800A      4.489765  
     801A      4.512443   802A      4.560411   803A      4.600604  
     804A      4.669254   805A      4.670219   806A      4.715852  
     807A      4.869388   808A      4.885917   809A      4.998121  

    Final Occupation by Irrep:
              A 
    DOCC [   164 ]

  @DF-RKS Final Energy: -1953.77662393316609

   => Energetics <=

    Nuclear Repulsion Energy =           6458.9139115938332907
    One-Electron Energy =              -15510.6433449233009014
    Two-Electron Energy =                7381.3308815699092520
    DFT Exchange-Correlation Energy =    -283.3780721736086434
    Empirical Dispersion Energy =           0.0000000000000000
    VV10 Nonlocal Energy =                  0.0000000000000000
    Total Energy =                      -1953.7766239331660927

Computation Completed


Properties will be evaluated at   0.000000,   0.000000,   0.000000 [a0]

Properties computed using the SCF density matrix

  Nuclear Dipole Moment: [e a0]
     X:     4.5036      Y:    -3.2860      Z:     5.5509

  Electronic Dipole Moment: [e a0]
     X:    -4.1230      Y:     3.1209      Z:    -5.2002

  Dipole Moment: [e a0]
     X:     0.3807      Y:    -0.1652      Z:     0.3507     Total:     0.5433

  Dipole Moment: [D]
     X:     0.9676      Y:    -0.4198      Z:     0.8913     Total:     1.3809


*** tstop() called on atom at Wed Jul 22 13:38:52 2020
Module time:
	user time   =    2577.23 seconds =      42.95 minutes
	system time =     107.91 seconds =       1.80 minutes
	total time  =       3708 seconds =      61.80 minutes
Total time:
	user time   =    2577.23 seconds =      42.95 minutes
	system time =     107.91 seconds =       1.80 minutes
	total time  =       3708 seconds =      61.80 minutes

*** tstart() called on atom
*** at Wed Jul 22 13:38:52 2020


         ------------------------------------------------------------
                                   SCF GRAD                          
                          Rob Parrish, Justin Turney,                
                       Andy Simmonett, and Alex Sokolov              
         ------------------------------------------------------------

  ==> Geometry <==

    Molecular point group: c1
    Full point group: C1

    Geometry (in Angstrom), charge = 0, multiplicity = 1:

       Center              X                  Y                   Z               Mass       
    ------------   -----------------  -----------------  -----------------  -----------------
         C            3.346398246407     0.052862316293    -2.537500005028    12.000000000000
         C            3.050288246407     1.442662316293    -2.537500005028    12.000000000000
         C            2.695228246407     2.056972316293    -1.306320005028    12.000000000000
         C            1.638758246407     3.007302316293    -1.306320005028    12.000000000000
         C            0.990428246407     3.295582316293    -2.537500005028    12.000000000000
         C           -0.422861753593     3.443432316293    -2.537500005028    12.000000000000
         C           -1.116821753593     3.295582316293    -1.306320005028    12.000000000000
         C           -2.347101753593     2.584482316293    -1.306320005028    12.000000000000
         C           -2.821611753593     2.056972316293    -2.537500005028    12.000000000000
         C           -3.398961753593     0.758542316293    -2.537500005028    12.000000000000
         C           -3.472791753593     0.052862316293    -1.306320005028    12.000000000000
         C           -3.176681753593    -1.336947683707    -1.306320005028    12.000000000000
         C           -2.821611753593    -1.951247683707    -2.537500005028    12.000000000000
         C           -1.765151753593    -2.901577683707    -2.537500005028    12.000000000000
         C           -1.116821753593    -3.189857683707    -1.306320005028    12.000000000000
         C            0.296468246407    -3.337707683707    -1.306320005028    12.000000000000
         C            0.990428246407    -3.189857683707    -2.537500005028    12.000000000000
         C            2.220708246407    -2.478767683707    -2.537500005028    12.000000000000
         C            2.695228246407    -1.951247683707    -1.306320005028    12.000000000000
         C            3.272578246407    -0.652817683707    -1.306320005028    12.000000000000
         C            3.346398246407     0.052862316293    -0.075140005028    12.000000000000
         C            3.050288246407     1.442662316293    -0.075140005028    12.000000000000
         C            2.695228246407     2.056972316293     1.156039994972    12.000000000000
         C            1.638758246407     3.007302316293     1.156039994972    12.000000000000
         C            0.990428246407     3.295582316293    -0.075140005028    12.000000000000
         C           -0.422861753593     3.443432316293    -0.075140005028    12.000000000000
         C           -1.116821753593     3.295582316293     1.156039994972    12.000000000000
         C           -2.347101753593     2.584482316293     1.156039994972    12.000000000000
         C           -2.821611753593     2.056972316293    -0.075140005028    12.000000000000
         C           -3.398961753593     0.758542316293    -0.075140005028    12.000000000000
         C           -3.472791753593     0.052862316293     1.156039994972    12.000000000000
         C           -3.176681753593    -1.336947683707     1.156039994972    12.000000000000
         C           -2.821611753593    -1.951247683707    -0.075140005028    12.000000000000
         C           -1.765151753593    -2.901577683707    -0.075140005028    12.000000000000
         C           -1.116821753593    -3.189857683707     1.156039994972    12.000000000000
         C            0.296468246407    -3.337707683707     1.156039994972    12.000000000000
         C            0.990428246407    -3.189857683707    -0.075140005028    12.000000000000
         C            2.220708246407    -2.478767683707    -0.075140005028    12.000000000000
         C            2.695228246407    -1.951247683707     1.156039994972    12.000000000000
         C            3.272578246407    -0.652817683707     1.156039994972    12.000000000000
         C            3.346398246407     0.052862316293     2.387219994972    12.000000000000
         C            3.050288246407     1.442662316293     2.387219994972    12.000000000000
         C            0.990428246407     3.295582316293     2.387219994972    12.000000000000
         C           -0.422861753593     3.443432316293     2.387219994972    12.000000000000
         C           -2.821611753593     2.056972316293     2.387219994972    12.000000000000
         C           -3.398961753593     0.758542316293     2.387219994972    12.000000000000
         C           -2.821611753593    -1.951247683707     2.387219994972    12.000000000000
         C           -1.765151753593    -2.901577683707     2.387219994972    12.000000000000
         C            0.990428246407    -3.189857683707     2.387219994972    12.000000000000
         C            2.220708246407    -2.478767683707     2.387219994972    12.000000000000
         H            3.608568246407    -0.431957683707    -3.410000005028     1.007825032070
         H            3.092068246407     1.992242316293    -3.410000005028     1.007825032070
         H            1.532528246407     3.395092316293    -3.410000005028     1.007825032070
         H           -0.932621753593     3.652992316293    -3.410000005028     1.007825032070
         H           -2.748741753593     2.603292316293    -3.410000005028     1.007825032070
         H           -3.755791753593     0.338492316293    -3.410000005028     1.007825032070
         H           -3.318671753593    -1.713117683707    -3.410000005028     1.007825032070
         H           -1.475911753593    -3.370747683707    -3.410000005028     1.007825032070
         H            0.610358246407    -3.589007683707    -3.410000005028     1.007825032070
         H            2.756288246407    -2.348667683707    -3.410000005028     1.007825032070
         H            3.608568246407    -0.431957683707     3.259709994972     1.007825032070
         H            3.092068246407     1.992242316293     3.259709994972     1.007825032070
         H            1.532528246407     3.395092316293     3.259709994972     1.007825032070
         H           -0.932621753593     3.652992316293     3.259709994972     1.007825032070
         H           -2.748741753593     2.603292316293     3.259709994972     1.007825032070
         H           -3.755791753593     0.338492316293     3.259709994972     1.007825032070
         H           -3.318671753593    -1.713117683707     3.259709994972     1.007825032070
         H           -1.475911753593    -3.370747683707     3.259709994972     1.007825032070
         H            0.610358246407    -3.589007683707     3.259709994972     1.007825032070
         C            2.756288246407    -2.348667683707     3.259709994972    12.000000000000
         H            3.646078246407    -1.791727683707     3.052339994972     1.007825032070
         H            3.019468246407    -3.304377683707     3.662529994972     1.007825032070
         H            2.158638246407    -1.815017683707     3.968889994972     1.007825032070

  Nuclear repulsion = 6458.913911593833291

  ==> Basis Set <==

  Basis Set: 6-31G(D)
    Blend: 6-31G(D)
    Number of shells: 350
    Number of basis function: 809
    Number of Cartesian functions: 809
    Spherical Harmonics?: false
    Max angular momentum: 2

  ==> DFJKGrad: Density-Fitted SCF Gradients <==

    Gradient:                    1
    J tasked:                  Yes
    K tasked:                   No
    wK tasked:                  No
    OpenMP threads:              1
    Integrals threads:           1
    Memory [MiB]:             2145
    Schwarz Cutoff:          0E+00
    Fitting Condition:       1E-12

   => Auxiliary Basis Set <=

  Basis Set: (6-31G(D) AUX)
    Blend: CC-PVDZ-JKFIT
    Number of shells: 1422
    Number of basis function: 4681
    Number of Cartesian functions: 4681
    Spherical Harmonics?: false
    Max angular momentum: 3

  ==> DFT Potential <==

   => Composite Functional: PBE <= 

    PBE GGA Exchange-Correlation Functional

    J.P. Perdew et. al., Phys. Rev. Lett., 77(18), 3865-3868, 1996


    Deriv               =              1
    GGA                 =           TRUE
    Meta                =          FALSE

    Exchange Hybrid     =          FALSE
    MP2 Hybrid          =          FALSE

   => Exchange Functionals <=

    1.0000     XC_GGA_X_PBE

   => Correlation Functionals <=

    1.0000     XC_GGA_C_PBE

   => Molecular Quadrature <=

    Radial Scheme          =       TREUTLER
    Pruning Scheme         =           FLAT
    Nuclear Scheme         =       TREUTLER

    BS radius alpha        =              1
    Pruning alpha          =              1
    Radial Points          =             75
    Spherical Points       =            302
    Total Points           =        1618906
    Total Blocks           =          11174
    Max Points             =            256
    Max Functions          =            542


  -Total Gradient:
     Atom            X                  Y                   Z
    ------   -----------------  -----------------  -----------------
       1        0.006870332104    -0.076863378907    -0.034186406364
       2       -0.025123589649     0.072910197698    -0.034174636455
       3        0.003011945791    -0.009266884095    -0.002331818002
       4       -0.009601022769     0.002204876860    -0.002834406625
       5        0.075390317860    -0.017330790628    -0.033702219110
       6       -0.077455549841    -0.001180823793    -0.033944710762
       7        0.009727655400    -0.000047061864    -0.003172902744
       8       -0.004965808827    -0.008310068796    -0.002811130680
       9        0.039702884741     0.066293854995    -0.033631791802
      10       -0.022837245995    -0.073885000036    -0.034131745890
      11        0.003187828956     0.009140040714    -0.003075400581
      12        0.006268197029    -0.007113263527    -0.002796574149
      13       -0.050343298346     0.058098485179    -0.033153140503
      14        0.062853523513    -0.044411707701    -0.034898027573
      15       -0.007040185296     0.006449478315    -0.000941172082
      16        0.008203516821     0.003063947490    -0.003447488749
      17       -0.070682965818    -0.030246873659    -0.034592378630
      18        0.061088766584     0.046288612131    -0.033677568523
      19       -0.007470135800    -0.004087505151    -0.002623722655
      20       -0.001049932757     0.009487465682    -0.003037903932
      21       -0.003448873332     0.001670537966     0.001337002203
      22       -0.001679104382    -0.002002899521    -0.000671923942
      23        0.002980245062    -0.009169729105     0.001291122880
      24       -0.008726585646     0.001053143741     0.003157499594
      25       -0.003006455246    -0.001937788995    -0.000550092899
      26        0.002762271584    -0.002647141267     0.000050488284
      27        0.009462711278    -0.000192252600     0.002901781085
      28       -0.004640978219    -0.008212299373     0.002901503704
      29        0.000899688616    -0.003379637289    -0.000189494156
      30        0.003384269123     0.001754455540    -0.000143417928
      31        0.003269752454     0.008700471914     0.002900989049
      32        0.006238180628    -0.006892459353     0.002816678617
      33        0.003684130566    -0.000589677583     0.000148708092
      34       -0.001203939723     0.003882126047    -0.001682597629
      35       -0.003893510976     0.007214964378     0.005254680363
      36        0.005440097379     0.002978230703    -0.006964337348
      37        0.000283499299     0.003062139493     0.003217531620
      38       -0.001475959190    -0.001801006236     0.002243880770
      39        0.010360171954     0.000924708597     0.037012958096
      40       -0.000813614076     0.011533029058    -0.001691605630
      41        0.004480590069    -0.095334949316     0.033087410950
      42       -0.023547027161     0.070003427489     0.037705691453
      43        0.075103319195    -0.017176903163     0.034032884436
      44       -0.077108470794    -0.001189758990     0.034149113499
      45        0.039660979545     0.066217299006     0.033652782775
      46       -0.022792665194    -0.073846571261     0.034249088128
      47       -0.050482555368     0.058014386069     0.033754548660
      48        0.062642792356    -0.044624344102     0.035085221923
      49       -0.035123471167    -0.020229723989     0.074699663956
      50        0.565470393382     0.172775344571     0.865418938408
      51       -0.007684498952     0.021468625871     0.041978339729
      52        0.001710312903    -0.022718034645     0.042044887175
      53       -0.022772291294    -0.000754079855     0.042042520736
      54        0.022115369793    -0.005457039306     0.042050659600
      55       -0.006316475043    -0.021918477697     0.042039714814
      56        0.012007476850     0.019364726516     0.042037077892
      57        0.018943434080    -0.012732880700     0.041996605048
      58       -0.014752199482     0.017354821180     0.042159793760
      59        0.018018381136     0.013930469040     0.042112665731
      60       -0.021091819951    -0.008584647808     0.042119995321
      61       -0.008440605356    -0.003268433121    -0.036888634800
      62        0.001403579974    -0.022667598561    -0.042050608602
      63       -0.022826605825    -0.000767076604    -0.042064634320
      64        0.022152752480    -0.005457296366    -0.042057164858
      65       -0.006299482206    -0.021947114199    -0.042049213818
      66        0.012038876347     0.019376804919    -0.042079805628
      67        0.018975636061    -0.012828546635    -0.042063820374
      68       -0.014686552400     0.017474961200    -0.042082432213
      69        0.017171091649     0.012750250396    -0.043896844168
      70       -0.532850702233    -0.124439327927    -0.845122367996
      71       -0.027362662760     0.016003589562    -0.027594991044
      72       -0.017230431228     0.018183549667    -0.032280619395
      73       -0.000159066372    -0.014087094151    -0.042365102370


*** tstop() called on atom at Wed Jul 22 14:02:11 2020
Module time:
	user time   =    1395.96 seconds =      23.27 minutes
	system time =       3.05 seconds =       0.05 minutes
	total time  =       1399 seconds =      23.32 minutes
Total time:
	user time   =    3973.19 seconds =      66.22 minutes
	system time =     110.96 seconds =       1.85 minutes
	total time  =       5107 seconds =      85.12 minutes

			-----------------------------------------
			 OPTKING 2.0: for geometry optimizations 
			  - R.A. King,  Bethel University        
			-----------------------------------------

	Internal coordinates to be generated automatically.
	Detected frag 1 with atoms:  1 2 3 4 5 6 7 8 9 10 11 12 13 14 15 16 17 18 19 20
	 21 22 23 24 25 26 27 28 29 30 31 32 33 34 35 36 37 38 39 40
	 41 42 43 44 45 46 47 48 49 50 51 52 53 54 55 56 57 58 59 60
	 61 62 63 64 65 66 67 68 69 70 71 72 73
	---Fragment 1 Bond Connectivity---
	 1 : 2 20 51
	 2 : 1 3 52
	 3 : 2 4 22
	 4 : 3 5 25
	 5 : 4 6 53
	 6 : 5 7 54
	 7 : 6 8 26
	 8 : 7 9 29
	 9 : 8 10 55
	 10 : 9 11 56
	 11 : 10 12 30
	 12 : 11 13 33
	 13 : 12 14 57
	 14 : 13 15 58
	 15 : 14 16 34
	 16 : 15 17 37
	 17 : 16 18 59
	 18 : 17 19 60
	 19 : 18 20 38
	 20 : 1 19 21
	 21 : 20 22 40
	 22 : 3 21 23
	 23 : 22 24 42
	 24 : 23 25 43
	 25 : 4 24 26
	 26 : 7 25 27
	 27 : 26 28 44
	 28 : 27 29 45
	 29 : 8 28 30
	 30 : 11 29 31
	 31 : 30 32 46
	 32 : 31 33 47
	 33 : 12 32 34
	 34 : 15 33 35
	 35 : 34 36 48
	 36 : 35 37 49
	 37 : 16 36 38
	 38 : 19 37 39
	 39 : 38 40 50
	 40 : 21 39 41
	 41 : 40 42 61
	 42 : 23 41 62
	 43 : 24 44 63
	 44 : 27 43 64
	 45 : 28 46 65
	 46 : 31 45 66
	 47 : 32 48 67
	 48 : 35 47 68
	 49 : 36 50 69
	 50 : 39 49 70
	 51 : 1
	 52 : 2
	 53 : 5
	 54 : 6
	 55 : 9
	 56 : 10
	 57 : 13
	 58 : 14
	 59 : 17
	 60 : 18
	 61 : 41
	 62 : 42
	 63 : 43
	 64 : 44
	 65 : 45
	 66 : 46
	 67 : 47
	 68 : 48
	 69 : 49
	 70 : 50 71 72 73
	 71 : 70
	 72 : 70
	 73 : 70

	---Fragment 1 Geometry and Gradient---
	 C           6.3237761924        0.0998953002       -4.7951800529
	 C           5.7642093894        2.7262366693       -4.7951800529
	 C           5.0932432313        3.8871143254       -2.4685870417
	 C           3.0968042715        5.6829777542       -2.4685870417
	 C           1.8716381326        6.2277480017       -4.7951800529
	 C          -0.7990929032        6.5071440093       -4.7951800529
	 C          -2.1104872452        6.2277480017       -2.4685870417
	 C          -4.4353795029        4.8839637539       -2.4685870417
	 C          -5.3320734467        3.8871143254       -4.7951800529
	 C          -6.4231068252        1.4334372324       -4.7951800529
	 C          -6.5626253050        0.0998953002       -2.4685870417
	 C          -6.0030585020       -2.5264649663       -2.4685870417
	 C          -5.3320734467       -3.6873237251       -4.7951800529
	 C          -3.3356533842       -5.4831871539       -4.7951800529
	 C          -2.1104872452       -6.0279574014       -2.4685870417
	 C           0.5602437906       -6.3073534090       -2.4685870417
	 C           1.8716381326       -6.0279574014       -4.7951800529
	 C           4.1965303903       -4.6841920508       -4.7951800529
	 C           5.0932432313       -3.6873237251       -2.4685870417
	 C           6.1842766098       -1.2336466321       -2.4685870417
	 C           6.3237761924        0.0998953002       -0.1419940306
	 C           5.7642093894        2.7262366693       -0.1419940306
	 C           5.0932432313        3.8871143254        2.1845989806
	 C           3.0968042715        5.6829777542        2.1845989806
	 C           1.8716381326        6.2277480017       -0.1419940306
	 C          -0.7990929032        6.5071440093       -0.1419940306
	 C          -2.1104872452        6.2277480017        2.1845989806
	 C          -4.4353795029        4.8839637539        2.1845989806
	 C          -5.3320734467        3.8871143254       -0.1419940306
	 C          -6.4231068252        1.4334372324       -0.1419940306
	 C          -6.5626253050        0.0998953002        2.1845989806
	 C          -6.0030585020       -2.5264649663        2.1845989806
	 C          -5.3320734467       -3.6873237251       -0.1419940306
	 C          -3.3356533842       -5.4831871539       -0.1419940306
	 C          -2.1104872452       -6.0279574014        2.1845989806
	 C           0.5602437906       -6.3073534090        2.1845989806
	 C           1.8716381326       -6.0279574014       -0.1419940306
	 C           4.1965303903       -4.6841920508       -0.1419940306
	 C           5.0932432313       -3.6873237251        2.1845989806
	 C           6.1842766098       -1.2336466321        2.1845989806
	 C           6.3237761924        0.0998953002        4.5111919917
	 C           5.7642093894        2.7262366693        4.5111919917
	 C           1.8716381326        6.2277480017        4.5111919917
	 C          -0.7990929032        6.5071440093        4.5111919917
	 C          -5.3320734467        3.8871143254        4.5111919917
	 C          -6.4231068252        1.4334372324        4.5111919917
	 C          -5.3320734467       -3.6873237251        4.5111919917
	 C          -3.3356533842       -5.4831871539        4.5111919917
	 C           1.8716381326       -6.0279574014        4.5111919917
	 C           4.1965303903       -4.6841920508        4.5111919917
	 H           6.8192056907       -0.8162817200       -6.4439660973
	 H           5.8431621469        3.7647923533       -6.4439660973
	 H           2.8960586652        6.4157946484       -6.4439660973
	 H          -1.7623996929        6.9031550162       -6.4439660973
	 H          -5.1943691039        4.9195095023       -6.4439660973
	 H          -7.0974177985        0.6396577734       -6.4439660973
	 H          -6.2713807146       -3.2373232429       -6.4439660973
	 H          -2.7890689996       -6.3697899602       -6.4439660973
	 H           1.1534099241       -6.7822415844       -6.4439660973
	 H           5.2086299085       -4.4383386819       -6.4439660973
	 H           6.8192056907       -0.8162817200        6.1599591389
	 H           5.8431621469        3.7647923533        6.1599591389
	 H           2.8960586652        6.4157946484        6.1599591389
	 H          -1.7623996929        6.9031550162        6.1599591389
	 H          -5.1943691039        4.9195095023        6.1599591389
	 H          -7.0974177985        0.6396577734        6.1599591389
	 H          -6.2713807146       -3.2373232429        6.1599591389
	 H          -2.7890689996       -6.3697899602        6.1599591389
	 H           1.1534099241       -6.7822415844        6.1599591389
	 C           5.2086299085       -4.4383386819        6.1599591389
	 H           6.8900893177       -3.3858746136        5.7680866323
	 H           5.7059680302       -6.2443688373        6.9211786168
	 H           4.0792350896       -3.4298863351        7.5001151126
	             0.0068703321       -0.0768633789       -0.0341864064
	            -0.0251235896        0.0729101977       -0.0341746365
	             0.0030119458       -0.0092668841       -0.0023318180
	            -0.0096010228        0.0022048769       -0.0028344066
	             0.0753903179       -0.0173307906       -0.0337022191
	            -0.0774555498       -0.0011808238       -0.0339447108
	             0.0097276554       -0.0000470619       -0.0031729027
	            -0.0049658088       -0.0083100688       -0.0028111307
	             0.0397028847        0.0662938550       -0.0336317918
	            -0.0228372460       -0.0738850000       -0.0341317459
	             0.0031878290        0.0091400407       -0.0030754006
	             0.0062681970       -0.0071132635       -0.0027965741
	            -0.0503432983        0.0580984852       -0.0331531405
	             0.0628535235       -0.0444117077       -0.0348980276
	            -0.0070401853        0.0064494783       -0.0009411721
	             0.0082035168        0.0030639475       -0.0034474887
	            -0.0706829658       -0.0302468737       -0.0345923786
	             0.0610887666        0.0462886121       -0.0336775685
	            -0.0074701358       -0.0040875052       -0.0026237227
	            -0.0010499328        0.0094874657       -0.0030379039
	            -0.0034488733        0.0016705380        0.0013370022
	            -0.0016791044       -0.0020028995       -0.0006719239
	             0.0029802451       -0.0091697291        0.0012911229
	            -0.0087265856        0.0010531437        0.0031574996
	            -0.0030064552       -0.0019377890       -0.0005500929
	             0.0027622716       -0.0026471413        0.0000504883
	             0.0094627113       -0.0001922526        0.0029017811
	            -0.0046409782       -0.0082122994        0.0029015037
	             0.0008996886       -0.0033796373       -0.0001894942
	             0.0033842691        0.0017544555       -0.0001434179
	             0.0032697525        0.0087004719        0.0029009890
	             0.0062381806       -0.0068924594        0.0028166786
	             0.0036841306       -0.0005896776        0.0001487081
	            -0.0012039397        0.0038821260       -0.0016825976
	            -0.0038935110        0.0072149644        0.0052546804
	             0.0054400974        0.0029782307       -0.0069643373
	             0.0002834993        0.0030621395        0.0032175316
	            -0.0014759592       -0.0018010062        0.0022438808
	             0.0103601720        0.0009247086        0.0370129581
	            -0.0008136141        0.0115330291       -0.0016916056
	             0.0044805901       -0.0953349493        0.0330874109
	            -0.0235470272        0.0700034275        0.0377056915
	             0.0751033192       -0.0171769032        0.0340328844
	            -0.0771084708       -0.0011897590        0.0341491135
	             0.0396609795        0.0662172990        0.0336527828
	            -0.0227926652       -0.0738465713        0.0342490881
	            -0.0504825554        0.0580143861        0.0337545487
	             0.0626427924       -0.0446243441        0.0350852219
	            -0.0351234712       -0.0202297240        0.0746996640
	             0.5654703934        0.1727753446        0.8654189384
	            -0.0076844990        0.0214686259        0.0419783397
	             0.0017103129       -0.0227180346        0.0420448872
	            -0.0227722913       -0.0007540799        0.0420425207
	             0.0221153698       -0.0054570393        0.0420506596
	            -0.0063164750       -0.0219184777        0.0420397148
	             0.0120074768        0.0193647265        0.0420370779
	             0.0189434341       -0.0127328807        0.0419966050
	            -0.0147521995        0.0173548212        0.0421597938
	             0.0180183811        0.0139304690        0.0421126657
	            -0.0210918200       -0.0085846478        0.0421199953
	            -0.0084406054       -0.0032684331       -0.0368886348
	             0.0014035800       -0.0226675986       -0.0420506086
	            -0.0228266058       -0.0007670766       -0.0420646343
	             0.0221527525       -0.0054572964       -0.0420571649
	            -0.0062994822       -0.0219471142       -0.0420492138
	             0.0120388763        0.0193768049       -0.0420798056
	             0.0189756361       -0.0128285466       -0.0420638204
	            -0.0146865524        0.0174749612       -0.0420824322
	             0.0171710916        0.0127502504       -0.0438968442
	            -0.5328507022       -0.1244393279       -0.8451223680
	            -0.0273626628        0.0160035896       -0.0275949910
	            -0.0172304312        0.0181835497       -0.0322806194
	            -0.0001590664       -0.0140870942       -0.0423651024

	Previous optimization step data not found.  Starting new optimization.

	---Fragment 1 Intrafragment Coordinates---
	 - Coordinate -           - BOHR/RAD -       - ANG/DEG -
	 R(1,2)           =         2.685290	       1.420994
	 R(1,20)          =         2.685299	       1.420999
	 R(1,51)          =         1.950212	       1.032008
	 R(2,3)           =         2.685306	       1.421003
	 R(2,52)          =         1.950212	       1.032008
	 R(3,4)           =         2.685311	       1.421005
	 R(3,22)          =         2.685306	       1.421003
	 R(4,5)           =         2.685301	       1.421000
	 R(4,25)          =         2.685301	       1.421000
	 R(5,6)           =         2.685306	       1.421003
	 R(5,53)          =         1.950204	       1.032003
	 R(6,7)           =         2.685303	       1.421001
	 R(6,54)          =         1.950200	       1.032001
	 R(7,8)           =         2.685308	       1.421004
	 R(7,26)          =         2.685303	       1.421001
	 R(8,9)           =         2.685294	       1.420996
	 R(8,29)          =         2.685294	       1.420996
	 R(9,10)          =         2.685309	       1.421004
	 R(9,55)          =         1.950205	       1.032004
	 R(10,11)         =         2.685300	       1.420999
	 R(10,56)         =         1.950199	       1.032001
	 R(11,12)         =         2.685309	       1.421004
	 R(11,30)         =         2.685300	       1.420999
	 R(12,13)         =         2.685302	       1.421001
	 R(12,33)         =         2.685302	       1.421001
	 R(13,14)         =         2.685297	       1.420998
	 R(13,57)         =         1.950204	       1.032003
	 R(14,15)         =         2.685301	       1.421000
	 R(14,58)         =         1.950209	       1.032006
	 R(15,16)         =         2.685306	       1.421003
	 R(15,34)         =         2.685301	       1.421000
	 R(16,17)         =         2.685303	       1.421001
	 R(16,37)         =         2.685303	       1.421001
	 R(17,18)         =         2.685299	       1.420999
	 R(17,59)         =         1.950203	       1.032003
	 R(18,19)         =         2.685307	       1.421003
	 R(18,60)         =         1.950201	       1.032002
	 R(19,20)         =         2.685309	       1.421004
	 R(19,38)         =         2.685307	       1.421003
	 R(20,21)         =         2.685299	       1.420999
	 R(21,22)         =         2.685290	       1.420994
	 R(21,40)         =         2.685299	       1.420999
	 R(22,23)         =         2.685306	       1.421003
	 R(23,24)         =         2.685311	       1.421005
	 R(23,42)         =         2.685306	       1.421003
	 R(24,25)         =         2.685301	       1.421000
	 R(24,43)         =         2.685301	       1.421000
	 R(25,26)         =         2.685306	       1.421003
	 R(26,27)         =         2.685303	       1.421001
	 R(27,28)         =         2.685308	       1.421004
	 R(27,44)         =         2.685303	       1.421001
	 R(28,29)         =         2.685294	       1.420996
	 R(28,45)         =         2.685294	       1.420996
	 R(29,30)         =         2.685309	       1.421004
	 R(30,31)         =         2.685300	       1.420999
	 R(31,32)         =         2.685309	       1.421004
	 R(31,46)         =         2.685300	       1.420999
	 R(32,33)         =         2.685302	       1.421001
	 R(32,47)         =         2.685302	       1.421001
	 R(33,34)         =         2.685297	       1.420998
	 R(34,35)         =         2.685301	       1.421000
	 R(35,36)         =         2.685306	       1.421003
	 R(35,48)         =         2.685301	       1.421000
	 R(36,37)         =         2.685303	       1.421001
	 R(36,49)         =         2.685303	       1.421001
	 R(37,38)         =         2.685299	       1.420999
	 R(38,39)         =         2.685307	       1.421003
	 R(39,40)         =         2.685309	       1.421004
	 R(39,50)         =         2.685307	       1.421003
	 R(40,41)         =         2.685299	       1.420999
	 R(41,42)         =         2.685290	       1.420994
	 R(41,61)         =         1.950196	       1.031999
	 R(42,62)         =         1.950196	       1.031999
	 R(43,44)         =         2.685306	       1.421003
	 R(43,63)         =         1.950188	       1.031995
	 R(44,64)         =         1.950184	       1.031993
	 R(45,46)         =         2.685309	       1.421004
	 R(45,65)         =         1.950189	       1.031995
	 R(46,66)         =         1.950183	       1.031992
	 R(47,48)         =         2.685297	       1.420998
	 R(47,67)         =         1.950188	       1.031995
	 R(48,68)         =         1.950193	       1.031998
	 R(49,50)         =         2.685299	       1.420999
	 R(49,69)         =         1.950187	       1.031995
	 R(50,70)         =         1.950185	       1.031994
	 R(70,71)         =         2.022016	       1.070005
	 R(70,72)         =         2.022015	       1.070004
	 R(70,73)         =         2.022011	       1.070002
	 B(1,2,3)         =         2.065629	     118.351848
	 B(1,2,52)        =         2.108783	     120.824365
	 B(1,20,19)       =         2.065622	     118.351430
	 B(1,20,21)       =         2.095969	     120.090196
	 B(2,1,20)        =         2.065625	     118.351620
	 B(2,1,51)        =         2.108782	     120.824331
	 B(2,3,4)         =         2.065627	     118.351696
	 B(2,3,22)        =         2.095960	     120.089668
	 B(3,2,52)        =         2.108773	     120.823787
	 B(3,4,5)         =         2.065625	     118.351586
	 B(3,4,25)        =         2.065625	     118.351586
	 B(3,22,21)       =         2.065629	     118.351848
	 B(3,22,23)       =         2.095960	     120.089668
	 B(4,3,22)        =         2.065627	     118.351696
	 B(4,5,6)         =         2.065625	     118.351587
	 B(4,5,53)        =         2.108781	     120.824228
	 B(4,25,24)       =         2.095966	     120.090025
	 B(4,25,26)       =         2.065625	     118.351587
	 B(5,4,25)        =         2.095966	     120.090025
	 B(5,6,7)         =         2.065628	     118.351777
	 B(5,6,54)        =         2.108773	     120.823804
	 B(6,5,53)        =         2.108780	     120.824186
	 B(6,7,8)         =         2.065624	     118.351558
	 B(6,7,26)        =         2.095964	     120.089879
	 B(7,6,54)        =         2.108784	     120.824419
	 B(7,8,9)         =         2.065621	     118.351381
	 B(7,8,29)        =         2.065621	     118.351381
	 B(7,26,25)       =         2.065628	     118.351777
	 B(7,26,27)       =         2.095964	     120.089879
	 B(8,7,26)        =         2.065624	     118.351558
	 B(8,9,10)        =         2.065621	     118.351391
	 B(8,9,55)        =         2.108787	     120.824582
	 B(8,29,28)       =         2.095975	     120.090547
	 B(8,29,30)       =         2.065621	     118.351391
	 B(9,8,29)        =         2.095975	     120.090547
	 B(9,10,11)       =         2.065625	     118.351605
	 B(9,10,56)       =         2.108772	     120.823738
	 B(10,9,55)       =         2.108777	     120.824027
	 B(10,11,12)      =         2.065624	     118.351528
	 B(10,11,30)      =         2.095968	     120.090124
	 B(11,10,56)      =         2.108788	     120.824658
	 B(11,12,13)      =         2.065624	     118.351521
	 B(11,12,33)      =         2.065624	     118.351521
	 B(11,30,29)      =         2.065625	     118.351605
	 B(11,30,31)      =         2.095968	     120.090124
	 B(12,11,30)      =         2.065624	     118.351528
	 B(12,13,14)      =         2.065629	     118.351818
	 B(12,13,57)      =         2.108779	     120.824148
	 B(12,33,32)      =         2.095965	     120.089924
	 B(12,33,34)      =         2.065629	     118.351818
	 B(13,12,33)      =         2.095965	     120.089924
	 B(13,14,15)      =         2.065624	     118.351539
	 B(13,14,58)      =         2.108784	     120.824430
	 B(14,13,57)      =         2.108777	     120.824034
	 B(14,15,16)      =         2.065625	     118.351587
	 B(14,15,34)      =         2.095966	     120.090025
	 B(15,14,58)      =         2.108777	     120.824031
	 B(15,16,17)      =         2.065628	     118.351777
	 B(15,16,37)      =         2.065628	     118.351777
	 B(15,34,33)      =         2.065624	     118.351539
	 B(15,34,35)      =         2.095966	     120.090025
	 B(16,15,34)      =         2.065625	     118.351587
	 B(16,17,18)      =         2.065625	     118.351620
	 B(16,17,59)      =         2.108785	     120.824453
	 B(16,37,36)      =         2.095964	     120.089879
	 B(16,37,38)      =         2.065625	     118.351620
	 B(17,16,37)      =         2.095964	     120.089879
	 B(17,18,19)      =         2.065628	     118.351792
	 B(17,18,60)      =         2.108778	     120.824054
	 B(18,17,59)      =         2.108775	     120.823927
	 B(18,19,20)      =         2.065629	     118.351842
	 B(18,19,38)      =         2.095958	     120.089560
	 B(19,18,60)      =         2.108779	     120.824154
	 B(19,20,21)      =         2.065622	     118.351430
	 B(19,38,37)      =         2.065628	     118.351792
	 B(19,38,39)      =         2.095958	     120.089560
	 B(20,1,51)       =         2.108777	     120.824049
	 B(20,19,38)      =         2.065629	     118.351842
	 B(20,21,22)      =         2.065625	     118.351620
	 B(20,21,40)      =         2.095969	     120.090196
	 B(21,22,23)      =         2.065629	     118.351848
	 B(21,40,39)      =         2.065622	     118.351430
	 B(21,40,41)      =         2.095969	     120.090196
	 B(22,21,40)      =         2.065625	     118.351620
	 B(22,23,24)      =         2.065627	     118.351696
	 B(22,23,42)      =         2.095960	     120.089668
	 B(23,24,25)      =         2.065625	     118.351586
	 B(23,24,43)      =         2.065625	     118.351586
	 B(23,42,41)      =         2.065629	     118.351848
	 B(23,42,62)      =         2.108768	     120.823507
	 B(24,23,42)      =         2.065627	     118.351696
	 B(24,25,26)      =         2.065625	     118.351587
	 B(24,43,44)      =         2.065625	     118.351587
	 B(24,43,63)      =         2.108776	     120.823948
	 B(25,24,43)      =         2.095966	     120.090025
	 B(25,26,27)      =         2.065628	     118.351777
	 B(26,27,28)      =         2.065624	     118.351558
	 B(26,27,44)      =         2.095964	     120.089879
	 B(27,28,29)      =         2.065621	     118.351381
	 B(27,28,45)      =         2.065621	     118.351381
	 B(27,44,43)      =         2.065628	     118.351777
	 B(27,44,64)      =         2.108779	     120.824139
	 B(28,27,44)      =         2.065624	     118.351558
	 B(28,29,30)      =         2.065621	     118.351391
	 B(28,45,46)      =         2.065621	     118.351391
	 B(28,45,65)      =         2.108782	     120.824302
	 B(29,28,45)      =         2.095975	     120.090547
	 B(29,30,31)      =         2.065625	     118.351605
	 B(30,31,32)      =         2.065624	     118.351528
	 B(30,31,46)      =         2.095968	     120.090124
	 B(31,32,33)      =         2.065624	     118.351521
	 B(31,32,47)      =         2.065624	     118.351521
	 B(31,46,45)      =         2.065625	     118.351605
	 B(31,46,66)      =         2.108783	     120.824377
	 B(32,31,46)      =         2.065624	     118.351528
	 B(32,33,34)      =         2.065629	     118.351818
	 B(32,47,48)      =         2.065629	     118.351818
	 B(32,47,67)      =         2.108774	     120.823868
	 B(33,32,47)      =         2.095965	     120.089924
	 B(33,34,35)      =         2.065624	     118.351539
	 B(34,35,36)      =         2.065625	     118.351587
	 B(34,35,48)      =         2.095966	     120.090025
	 B(35,36,37)      =         2.065628	     118.351777
	 B(35,36,49)      =         2.065628	     118.351777
	 B(35,48,47)      =         2.065624	     118.351539
	 B(35,48,68)      =         2.108772	     120.823751
	 B(36,35,48)      =         2.065625	     118.351587
	 B(36,37,38)      =         2.065625	     118.351620
	 B(36,49,50)      =         2.065625	     118.351620
	 B(36,49,69)      =         2.108780	     120.824173
	 B(37,36,49)      =         2.095964	     120.089879
	 B(37,38,39)      =         2.065628	     118.351792
	 B(38,39,40)      =         2.065629	     118.351842
	 B(38,39,50)      =         2.095958	     120.089560
	 B(39,40,41)      =         2.065622	     118.351430
	 B(39,50,49)      =         2.065628	     118.351792
	 B(39,50,70)      =         2.108774	     120.823874
	 B(40,39,50)      =         2.065629	     118.351842
	 B(40,41,42)      =         2.065625	     118.351620
	 B(40,41,61)      =         2.108773	     120.823769
	 B(41,42,62)      =         2.108788	     120.824645
	 B(42,41,61)      =         2.108787	     120.824611
	 B(43,44,64)      =         2.108778	     120.824084
	 B(44,43,63)      =         2.108785	     120.824466
	 B(45,46,66)      =         2.108777	     120.824018
	 B(46,45,65)      =         2.108782	     120.824307
	 B(47,48,68)      =         2.108789	     120.824710
	 B(48,47,67)      =         2.108782	     120.824314
	 B(49,50,70)      =         2.108782	     120.824334
	 B(50,49,69)      =         2.108780	     120.824207
	 B(50,70,71)      =         1.910637	     109.471437
	 B(50,70,72)      =         1.910627	     109.470852
	 B(50,70,73)      =         1.910645	     109.471912
	 B(71,70,72)      =         1.910628	     109.470919
	 B(71,70,73)      =         1.910632	     109.471158
	 B(72,70,73)      =         1.910630	     109.471046
	 D(1,2,3,4)       =        -2.424024	    -138.886340
	 D(1,2,3,22)      =         0.358776	      20.556346
	 D(1,20,19,18)    =         0.000000	       0.000000
	 D(1,20,19,38)    =        -2.789108	    -159.804114
	 D(1,20,21,22)    =         0.358773	      20.556176
	 D(1,20,21,40)    =         3.141593	     180.000000
	 D(2,1,20,19)     =         2.424026	     138.886437
	 D(2,1,20,21)     =        -0.358773	     -20.556176
	 D(2,3,4,5)       =        -0.000000	      -0.000000
	 D(2,3,4,25)      =         2.789107	     159.804043
	 D(2,3,22,21)     =        -0.358776	     -20.556346
	 D(2,3,22,23)     =         3.141593	     180.000000
	 D(3,2,1,20)      =        -0.000000	      -0.000000
	 D(3,2,1,51)      =         3.141593	     180.000000
	 D(3,4,5,6)       =         2.424021	     138.886163
	 D(3,4,5,53)      =        -0.717562	     -41.113273
	 D(3,4,25,24)     =         0.358786	      20.556919
	 D(3,4,25,26)     =        -2.424021	    -138.886163
	 D(3,22,21,20)    =         0.000000	       0.000000
	 D(3,22,21,40)    =        -2.789121	    -159.804882
	 D(3,22,23,24)    =         0.358793	      20.557314
	 D(3,22,23,42)    =         3.141593	     180.000000
	 D(4,3,2,52)      =         0.717576	      41.114086
	 D(4,3,22,21)     =         2.424024	     138.886340
	 D(4,3,22,23)     =        -0.358793	     -20.557314
	 D(4,5,6,7)       =         0.000000	       0.000000
	 D(4,5,6,54)      =         3.141593	     180.000000
	 D(4,25,24,23)    =        -0.358786	     -20.556919
	 D(4,25,24,43)    =         3.141593	     180.000000
	 D(4,25,26,7)     =        -0.000000	      -0.000000
	 D(4,25,26,27)    =         2.789117	     159.804628
	 D(5,4,3,22)      =        -2.789107	    -159.804043
	 D(5,4,25,24)     =         3.141593	     180.000000
[...]
	  426 D(28,29,30,31)  =     -0.166508     0.000000    -0.001397    -0.167905
	  427 D(28,45,46,31)  =     -0.107840     0.000000    -0.000021    -0.107861
	  428 D(28,45,46,66)  =    171.654077     0.000000     0.005439   171.659516
	  429 D(29,8,9,55)    =    164.907414     0.000000    -0.000955   164.906459
	  430 D(29,28,27,44)  =   -160.567373     0.000000    -0.000626  -160.567999
	  431 D(29,28,45,46)  =     23.625163    -0.000000    -0.000771    23.624392
	  432 D(29,28,45,65)  =   -164.802910     0.000000     0.002715  -164.800195
	  433 D(29,30,31,32)  =   -138.344697    -0.000000     0.000928  -138.343769
	  434 D(29,30,31,46)  =     23.343307    -0.000000     0.000465    23.343772
	  435 D(30,11,10,56)  =   -164.952631     0.000000     0.001485  -164.951146
	  436 D(30,11,12,33)  =     -0.108402     0.000000    -0.002436    -0.110839
	  437 D(30,29,28,45)  =    -23.150961     0.000000     0.001520   -23.149440
	  438 D(30,31,32,33)  =     -0.340744     0.000000    -0.002132    -0.342876
	  439 D(30,31,32,47)  =    160.360352     0.000000    -0.001582   160.358770
	  440 D(30,31,46,45)  =    -23.545442     0.000000     0.000150   -23.545293
	  441 D(30,31,46,66)  =    164.728090    -0.000000    -0.005740   164.722350
	  442 D(31,32,33,34)  =    139.301310     0.000000     0.003800   139.305110
	  443 D(31,32,47,48)  =   -138.103836     0.000000    -0.002952  -138.106788
	  444 D(31,32,47,67)  =     33.256429     0.000000    -0.002370    33.254059
	  445 D(31,46,45,65)  =   -171.714882    -0.000000    -0.003041  -171.717923
	  446 D(32,31,46,45)  =    137.252121     0.000000    -0.000393   137.251727
	  447 D(32,31,46,66)  =    -34.474347    -0.000000    -0.006283   -34.480630
	  448 D(32,33,34,35)  =      0.167329     0.000000     0.000090     0.167418
	  449 D(32,47,48,35)  =     -0.198593     0.000000    -0.001872    -0.200465
	  450 D(32,47,48,68)  =    171.159659    -0.000000    -0.001875   171.157784
	  451 D(33,12,13,57)  =    165.418314    -0.000000    -0.001858   165.416455
	  452 D(33,32,31,46)  =   -160.952120     0.000000    -0.001566  -160.953686
	  453 D(33,32,47,48)  =     22.760263    -0.000000    -0.002485    22.757779
	  454 D(33,32,47,67)  =   -165.879471     0.000000    -0.001903  -165.881374
	  455 D(33,34,35,36)  =   -140.098491     0.000000    -0.003202  -140.101693
	  456 D(33,34,35,48)  =     22.088186    -0.000000    -0.004344    22.083842
	  457 D(34,15,14,58)  =   -165.467877     0.000000     0.001786  -165.466092
	  458 D(34,15,16,37)  =      0.495743     0.000000     0.005496     0.501239
	  459 D(34,33,32,47)  =    -22.410134    -0.000000     0.003424   -22.406710
	  460 D(34,35,36,37)  =      0.881446     0.000000     0.003724     0.885170
	  461 D(34,35,36,49)  =    164.124235     0.000000     0.008638   164.132873
	  462 D(34,35,48,47)  =    -22.388930     0.000000     0.005332   -22.383598
	  463 D(34,35,48,68)  =    166.271723     0.000000     0.004929   166.276651
	  464 D(35,36,37,38)  =    138.831265    -0.000000    -0.004673   138.826591
	  465 D(35,36,49,50)  =   -138.379171     0.000000     0.011159  -138.368012
	  466 D(35,36,49,69)  =     36.404929     0.000000     0.018621    36.423551
	  467 D(35,48,47,67)  =   -171.592490     0.000000    -0.002199  -171.594688
	  468 D(36,35,48,47)  =    138.964575     0.000000     0.004714   138.969289
	  469 D(36,35,48,68)  =    -32.374773    -0.000000     0.004311   -32.370462
	  470 D(36,37,38,39)  =      0.197410    -0.000000    -0.000860     0.196549
	  471 D(36,49,50,39)  =      1.909763    -0.000000    -0.010626     1.899137
	  472 D(36,49,50,70)  =    178.751688     0.000000     0.038762   178.790451
	  473 D(37,16,17,59)  =    165.301790    -0.000000    -0.001153   165.300637
	  474 D(37,36,35,48)  =   -160.323809     0.000000     0.004400  -160.319409
	  475 D(37,36,49,50)  =     25.152684     0.000000     0.016165    25.168849
	  476 D(37,36,49,69)  =   -160.063215     0.000000     0.023627  -160.039588
	  477 D(37,38,39,40)  =   -137.231752     0.000000     0.009371  -137.222381
	  478 D(37,38,39,50)  =     26.640619    -0.000000     0.006020    26.646639
	  479 D(38,19,18,60)  =   -165.075170     0.000000     0.002382  -165.072788
	  480 D(38,37,36,49)  =    -25.682683    -0.000000    -0.010166   -25.692849
	  481 D(38,39,40,41)  =    160.387103    -0.000000    -0.004912   160.382190
	  482 D(38,39,50,49)  =    -27.710245     0.000000    -0.000707   -27.710952
	  483 D(38,39,50,70)  =    155.574042    -0.000000    -0.052735   155.521307
	  484 D(39,40,41,42)  =   -137.583816     0.000000    -0.009986  -137.593803
	  485 D(39,40,41,61)  =     35.245003     0.000000    -0.011207    35.233796
	  486 D(39,50,49,69)  =   -172.918697    -0.000000    -0.017858  -172.936555
	  487 D(39,50,70,71)  =    -30.988932     0.000000    -0.007586   -30.996517
	  488 D(39,50,70,72)  =   -150.693856     0.000000    -0.010672  -150.704528
	  489 D(39,50,70,73)  =     90.420553     0.000000    -0.012766    90.407787
	  490 D(40,39,50,49)  =    134.779809    -0.000000    -0.004619   134.775190
	  491 D(40,39,50,70)  =    -41.935904    -0.000000    -0.056647   -41.992551
	  492 D(40,41,42,62)  =    171.800033    -0.000000    -0.000971   171.799062
	  493 D(41,40,39,50)  =     -1.983459    -0.000000    -0.000734    -1.984194
	  494 D(42,23,24,43)  =     -0.829735    -0.000000     0.000556    -0.829179
	  495 D(44,27,28,45)  =     -0.065800    -0.000000    -0.002062    -0.067862
	  496 D(46,31,32,47)  =     -0.251024     0.000000    -0.001016    -0.252040
	  497 D(48,35,36,49)  =      2.918980     0.000000     0.009314     2.928294
	  498 D(49,50,70,71)  =    152.345744    -0.000000    -0.060074   152.285670
	  499 D(49,50,70,72)  =     32.640819    -0.000000    -0.063160    32.577659
	  500 D(49,50,70,73)  =    -86.244772    -0.000000    -0.065254   -86.310026
	  501 D(51,1,2,52)    =     -0.043820    -0.000000    -0.000503    -0.044323
	  502 D(53,5,6,54)    =      0.029707    -0.000000    -0.000521     0.029186
	  503 D(55,9,10,56)   =     -0.019505     0.000000    -0.000337    -0.019842
	  504 D(57,13,14,58)  =     -0.032760     0.000000    -0.000089    -0.032849
	  505 D(59,17,18,60)  =      0.132190    -0.000000     0.000098     0.132289
	  506 D(61,41,42,62)  =     -1.129855     0.000000     0.001157    -1.128698
	  507 D(63,43,44,64)  =      0.033266     0.000000     0.002075     0.035341
	  508 D(65,45,46,66)  =      0.047036     0.000000     0.002419     0.049454
	  509 D(67,47,48,68)  =     -0.234237    -0.000000    -0.002203    -0.236440
	  510 D(69,49,50,70)  =      3.923228     0.000000     0.031531     3.954759
	  511 R(41,70)        =      3.144027     0.000065     0.000584     3.144610
	 ---------------------------------------------------------------------------
	Successfully symmetrized geometry.

  ==> Convergence Check <==

  Measures of convergence in internal coordinates in au.
  Criteria marked as inactive (o), active & met (*), and active & unmet ( ).
  ---------------------------------------------------------------------------------------------
   Step     Total Energy     Delta E     MAX Force     RMS Force      MAX Disp      RMS Disp   
  ---------------------------------------------------------------------------------------------
    Convergence Criteria    1.00e-06 *    3.00e-04 *             o    1.20e-03 *             o
  ---------------------------------------------------------------------------------------------
     17   -1954.24615369   -1.20e-06      4.59e-05 *    6.16e-06 o    1.14e-03 *    1.35e-04 o  ~
  ---------------------------------------------------------------------------------------------


  **** Optimization is complete! (in 17 steps) ****

  ==> Optimization Summary <==

  Measures of convergence in internal coordinates in au.
  --------------------------------------------------------------------------------------------------------------- ~
   Step         Total Energy             Delta E       MAX Force       RMS Force        MAX Disp        RMS Disp  ~
  --------------------------------------------------------------------------------------------------------------- ~
      1   -1953.776623933166  -1953.776623933166      1.11092509      0.05094993      0.34827238      0.02227144  ~
      2   -1954.099111924345     -0.322487991179      0.37075630      0.01803926      0.23487491      0.02121363  ~
      3   -1954.191623563162     -0.092511638817      0.19872649      0.00922401      0.16979640      0.01764233  ~
      4   -1954.227352407179     -0.035728844017      0.08424271      0.00388921      0.26624195      0.02130493  ~
      5   -1954.239633325119     -0.012280917940      0.04774839      0.00219594      0.14457772      0.01353455  ~
      6   -1954.244068792411     -0.004435467292      0.02087309      0.00100054      0.09506602      0.00781406  ~
      7   -1954.245214347494     -0.001145555083      0.00700997      0.00036724      0.03499330      0.00309106  ~
      8   -1954.245406767840     -0.000192420345      0.00156635      0.00010529      0.01668543      0.00170065  ~
      9   -1954.245460864717     -0.000054096877      0.00055174      0.00006845      0.03506025      0.00372655  ~
     10   -1954.245553647498     -0.000092782781      0.00206148      0.00012229      0.09025299      0.01013306  ~
     11   -1954.245706655979     -0.000153008482      0.00448606      0.00031372      0.08262032      0.00901871  ~
     12   -1954.245826185509     -0.000119529530      0.00515027      0.00038168      0.09602201      0.00987321  ~
     13   -1954.245993563264     -0.000167377754      0.00419815      0.00034136      0.06085254      0.00623223  ~
     14   -1954.246134094267     -0.000140531004      0.00087340      0.00008100      0.01730276      0.00170330  ~
     15   -1954.246146647413     -0.000012553146      0.00044679      0.00003587      0.00956072      0.00067490  ~
     16   -1954.246152489569     -0.000005842156      0.00019952      0.00001919      0.00588675      0.00056477  ~
     17   -1954.246153690293     -0.000001200723      0.00004587      0.00000616      0.00113890      0.00013463  ~
  --------------------------------------------------------------------------------------------------------------- ~

	Writing optimization data to binary file.
	Final energy is  -1954.2461536902927
	Final (previous) structure:
	Cartesian Geometry (in Angstrom)
	    C     3.4773235054  -0.1137423500  -2.5374873557
	    C     3.1941619405   1.2264647832  -2.6290839558
	    C     2.7342280381   1.9485562843  -1.4681703176
	    C     1.6851077478   2.9203892477  -1.5310435774
	    C     1.0002904071   3.2417483282  -2.7603798279
	    C    -0.3618167543   3.4154453312  -2.7663428002
	    C    -1.1160233330   3.2773279844  -1.5431226370
	    C    -2.3704975961   2.5906901709  -1.4897592452
	    C    -2.9733728028   1.9888170332  -2.6555092773
	    C    -3.5496313074   0.7458680011  -2.5681635615
	    C    -3.5535092250   0.0360847988  -1.3107756793
	    C    -3.2662622303  -1.3630138379  -1.2200890911
	    C    -2.9574374566  -2.1646433429  -2.3799162487
	    C    -1.9450797465  -3.0909923241  -2.3281344359
	    C    -1.1871758421  -3.2705706365  -1.1135477113
	    C     0.2338732367  -3.4460345551  -1.1144736467
	    C     1.0169667791  -3.4513960426  -2.3260650071
	    C     2.2239965463  -2.7984799575  -2.3635602882
	    C     2.7106599309  -2.1013518427  -1.1962219864
	    C     3.3099473050  -0.8053634426  -1.2816113461
	    C     3.3530715711  -0.0165160444  -0.0885617242
	    C     3.0610404847   1.3939100961  -0.1871432442
	    C     2.7422462422   2.1189112262   1.0061529820
	    C     1.6951946602   3.0907827609   0.9453911161
	    C     1.0296915218   3.2830968064  -0.3092173102
	    C    -0.4019322933   3.4671082635  -0.3151342438
	    C    -1.1042073273   3.4472558491   0.9342901303
	    C    -2.3571461939   2.7585778837   0.9873955820
	    C    -2.8306301362   2.1330520069  -0.2119360542
	    C    -3.4342673397   0.8244908390  -0.1202219671
	    C    -3.5329146120   0.2009587782   1.1665240866
	    C    -3.2407256913  -1.1968861056   1.2579416692
	    C    -2.8750543486  -1.8869999130   0.0556268498
	    C    -1.8122900635  -2.8619513951   0.1098537486
	    C    -1.1633250109  -3.1075007257   1.3648564714
	    C     0.2526297147  -3.2977619353   1.3609369659
	    C     0.9392796012  -3.2128109884   0.1091956513
	    C     2.2069823495  -2.5250915608   0.0755064745
	    C     2.7299700556  -1.9599139575   1.2905920181
	    C     3.3106595150  -0.6523787026   1.2017608514
	    C     3.5051978812   0.2204565178   2.3397174931
	    C     3.2214273786   1.5605997352   2.2457974583
	    C     1.0222889384   3.5770238954   2.1260660353
	    C    -0.3394586308   3.7513765784   2.1205024918
	    C    -2.9449983773   2.3176775425   2.2305460673
	    C    -3.5161305998   1.0725184976   2.3178117459
	    C    -2.9030014564  -1.8334044902   2.5089858470
	    C    -1.8916745798  -2.7606363670   2.5609979670
	    C     1.0740775384  -3.2241368428   2.5424271164
	    C     2.2999635311  -2.5950632459   2.5354223390
	    H     3.6950322310  -0.6815552453  -3.4472690889
	    H     3.1903409642   1.7105943432  -3.6105408338
	    H     1.5426368887   3.2119649797  -3.7104517310
	    H    -0.8863358091   3.5212066841  -3.7209816822
	    H    -2.8515346369   2.4582773329  -3.6365563365
	    H    -3.8801370877   0.2404609094  -3.4808420562
	    H    -3.4333452577  -1.9408208146  -3.3396037585
	    H    -1.6281535064  -3.5934133791  -3.2473335329
	    H     0.5932127205  -3.8553507809  -3.2506299608
	    H     2.7465311637  -2.6882427578  -3.3187069049
	    H     3.7667135083  -0.1952154538   3.3132624857
	    H     3.2452762399   2.1775199204   3.1496070767
	    H     1.5741552326   3.6755145270   3.0659903552
	    H    -0.8558003921   3.9872154788   3.0561322690
	    H    -2.8147716069   2.9154363776   3.1379598145
	    H    -3.8348207620   0.6934734187   3.2937444310
	    H    -3.3540212200  -1.4768802345   3.4401154089
	    H    -1.5468219517  -3.1284876621   3.5324252498
	    H     0.6839767985  -3.6022605276   3.4948635957
	    C     3.1037938860  -2.5261632701   3.8161517513
	    H     4.1869244443  -2.4675317592   3.6191736624
	    H     2.9196439584  -3.4286936392   4.4228765045
	    H     2.8291373270  -1.6575629017   4.4430353003
	Saving final (previous) structure.
			--------------------------
			 OPTKING Finished Execution 
			--------------------------

    Final optimized geometry and variables:
    Molecular point group: c1
    Full point group: C1

    Geometry (in Angstrom), charge = 0, multiplicity = 1:

    C            3.477323519064    -0.113742350434    -2.537487365721
    C            3.194161953081     1.226464787973    -2.629083966116
    C            2.734228048871     1.948556291910    -1.468170323343
    C            1.685107754432     2.920389259203    -1.531043583390
    C            1.000290411026     3.241748340939    -2.760379838703
    C           -0.361816755722     3.415445344662    -2.766342811109
    C           -1.116023337378     3.277327997250    -1.543122643107
    C           -2.370497605394     2.590690181046    -1.489759251057
    C           -2.973372814525     1.988817041003    -2.655509287765
    C           -3.549631321309     0.745868004044    -2.568163571625
    C           -3.553509238977     0.036084798893    -1.310775684496
    C           -3.266262243089    -1.363013843221    -1.220089095910
    C           -2.957437468266    -2.164643351398    -2.379916258020
    C           -1.945079754103    -3.090992336248    -2.328134445060
    C           -1.187175846768    -3.270570649346    -1.113547715643
    C            0.233873237575    -3.446034568671    -1.114473651079
    C            1.016966783074    -3.451396056203    -2.326065016252
    C            2.223996555011    -2.798479968506    -2.363560297485
    C            2.710659941562    -2.101351850941    -1.196221991091
    C            3.309947318032    -0.805363445790    -1.281611351153
    C            3.353071584306    -0.016516044486    -0.088561724526
    C            3.061040496734     1.393910101602    -0.187143244891
    C            2.742246253017     2.118911234509     1.006152985911
    C            1.695194666853     3.090782773080     0.945391119832
    C            1.029691525892     3.283096819324    -0.309217311372
    C           -0.401932294914     3.467108277087    -0.315134244994
    C           -1.104207331647     3.447255862675     0.934290133981
    C           -2.357146203205     2.758577894507     0.987395585920
    C           -2.830630147358     2.133052015333    -0.211936055038
    C           -3.434267353185     0.824490842253    -0.120221967553
    C           -3.532914625878     0.200958778978     1.166524091193
    C           -3.240725704023    -1.196886110304     1.257941674158
    C           -2.875054359857    -1.886999920466     0.055626850010
    C           -1.812290070640    -2.861951406327     0.109853749073
    C           -1.163325015511    -3.107500737898     1.364856476805
    C            0.252629715711    -3.297761948229     1.360936971221
    C            0.939279604875    -3.212811000990     0.109195651722
    C            2.206982358182    -2.525091570738     0.075506474768
    C            2.729970066293    -1.959913965235     1.290592023191
    C            3.310659528047    -0.652378705124     1.201760856088
    C            3.505197894971     0.220456518709     2.339717502274
    C            3.221427391219     1.560599741362     2.245797467133
    C            1.022288942446     3.577023909498     2.126066043648
    C           -0.339458632116     3.751376593127     2.120502500092
    C           -2.944998388830     2.317677551597     2.230546076057
    C           -3.516130613641     1.072518501824     2.317811755054
    C           -2.903001467787    -1.833404497371     2.508985856877
    C           -1.891674587220    -2.760636377824     2.560997977025
    C            1.074077542609    -3.224136855467     2.542427126434
    C            2.299963540178    -2.595063256115     2.535422348999
    H            3.695032245563    -0.681555247958    -3.447269102489
    H            3.190340976732     1.710594349939    -3.610540848018
    H            1.542636894805     3.211964992304    -3.710451745618
    H           -0.886335812537     3.521206697982    -3.720981696784
    H           -2.851534648105     2.458277342612    -3.636556350755
    H           -3.880137102952     0.240460910318    -3.480842069867
    H           -3.433345271230    -1.940820822203    -3.339603771633
    H           -1.628153512780    -3.593413393209    -3.247333545688
    H            0.593212722840    -3.855350796039    -3.250629973531
    H            2.746531174483    -2.688242768363    -3.318706917939
    H            3.766713523115    -0.195215454568     3.313262498721
    H            3.245276252620     2.177519929003     3.149607089044
    H            1.574155238782     3.675514541428     3.065990367276
    H           -0.855800395466     3.987215494448     3.056132281027
    H           -2.814771617917     2.915436389101     3.137959826871
    H           -3.834820777029     0.693473421469     3.293744443904
    H           -3.354021233179    -1.476880240346     3.440115422435
    H           -1.546821957815    -3.128487674380     3.532425263699
    H            0.683976801219    -3.602260541713     3.494863609434
    C            3.103793898201    -2.526163280027     3.816151766323
    H            4.186924460767    -2.467531768928     3.619173676606
    H            2.919643969864    -3.428693652640     4.422876521906
    H            2.829137338091    -1.657562908215     4.443035317726

	Cleaning optimization helper files.

    Psi4 stopped on: Thursday, 23 July 2020 07:16AM
    Psi4 wall time for execution: 18:39:43.99

*** Psi4 exiting successfully. Buy a developer a beer!
Optimizer: Optimization complete!
