
    -----------------------------------------------------------------------
          Psi4: An Open-Source Ab Initio Electronic Structure Package
                               Psi4 1.4rc2.dev99 

                         Git: Rev {master} c4c438c 


    D. G. A. Smith, L. A. Burns, A. C. Simmonett, R. M. Parrish,
    M. C. Schieber, R. Galvelis, P. Kraus, H. Kruse, R. Di Remigio,
    A. Alenaizan, A. M. James, S. Lehtola, J. P. Misiewicz, M. Scheurer,
    R. A. Shaw, J. B. Schriber, Y. Xie, Z. L. Glick, D. A. Sirianni,
    J. S. O'Brien, J. M. Waldrop, A. Kumar, E. G. Hohenstein,
    B. P. Pritchard, B. R. Brooks, H. F. Schaefer III, A. Yu. Sokolov,
    K. Patkowski, A. E. DePrince III, U. Bozkaya, R. A. King,
    F. A. Evangelista, J. M. Turney, T. D. Crawford, C. D. Sherrill,
    J. Chem. Phys. 152(18) 184108 (2020). https://doi.org/10.1063/5.0006002

                            Additional Code Authors
    E. T. Seidl, C. L. Janssen, E. F. Valeev, M. L. Leininger,
    J. F. Gonthier, R. M. Richard, H. R. McAlexander, M. Saitow, X. Wang,
    P. Verma, and M. H. Lechner

             Previous Authors, Complete List of Code Contributors,
                       and Citations for Specific Modules
    https://github.com/psi4/psi4/blob/master/codemeta.json
    https://github.com/psi4/psi4/graphs/contributors
    http://psicode.org/psi4manual/master/introduction.html#citing-psifour

    -----------------------------------------------------------------------


    Psi4 started on: Sunday, 30 May 2021 01:21PM

    Process ID: 3148915
    Host:       skylm003.palmetto.clemson.edu
    PSIDATADIR: /home/adamcronin/.conda/envs/p4env/share/psi4
    Memory:     500.0 MiB
    Threads:    1
    
  ==> Input File <==

--------------------------------------------------------------------------
molecule{
0 2
C           -2.375525097209   -11.902987742173     1.563045596161
C            0.109736613434     9.781915264170    -5.030480994389
C            1.064946555226    10.198026665664    -3.997082519720
C            1.593094676373     9.172642432022    -3.035246227669
C            1.734668472468     9.509192152131    -1.582397749555
C            1.349265006733    10.872030540061    -1.084262159741
C            0.619383610077    10.989093768415     0.184034058140
C            0.280476136767     9.742718232723     0.949437240394
C           -1.062027532780     9.600902061139     1.598507124910
C           -2.074564866071    10.703274648955     1.480557352809
C           -3.478126995474    10.359974217800     1.223478809442
C           -3.859939189403     8.914666284021     1.082366988442
C           -4.831155466659     8.492091977037     0.024318362517
C           -5.428389564401     9.510550529019    -0.903465702104
C           -5.577973002504     9.177834511134    -2.325165947871
C           -5.128172974389     7.830127431290    -2.811557548087
C           -4.383315817159     7.709866320706    -4.105325638263
C           -4.089871095778     8.935150284077    -4.922397538631
C           -2.767579742375     9.078492679160    -5.542688596432
C           -1.748456540601     7.992813206966    -5.348080332920
C           -0.315831598062     8.343105520952    -5.092104932050
C            0.577623102459     7.312346761118    -4.488638547166
C            1.554550818026     7.737330559326    -3.437092899683
C            2.109340369943     6.704097943091    -2.510638222424
C            2.249601579359     7.039286376922    -1.063995956722
C            1.830789476610     8.395306778523    -0.595775862639
C            1.087462735504     8.514350638082     0.697433862487
C            0.792322944681     7.272641924848     1.475331831633
C           -0.547048129997     7.129805278843     2.116225748857
C           -1.541035992159     8.234775364092     1.957352036260
C           -2.971104905354     7.883908930596     1.691588454786
C           -3.355443487649     6.442415852366     1.603126722415
C           -4.327026504707     6.021458369425     0.553333669590
C           -4.877925570312     7.055815659443    -0.374057165687
C           -5.029932470928     6.717100567120    -1.823665632023
C           -4.617298167283     5.359151250486    -2.291948443496
C           -3.876013989503     5.239305247409    -3.581270161876
C           -3.573680789373     6.481848691611    -4.353821793540
C           -2.227058492018     6.626587965507    -4.990081350524
C           -1.233054260435     5.521299898408    -4.832575920227
C            0.194479154325     5.870769925195    -4.576435326779
C            1.092616142244     4.839732885041    -3.966286878705
C            2.067617403636     5.264882095288    -2.916632221517
C            2.623260684942     4.233880204283    -1.990066669035
C            2.763617764061     4.569646173665    -0.540215158069
C            2.345790131656     5.924358476049    -0.071440254223
C            1.605241330274     6.043209699927     1.219960744848
C            1.306645210990     4.801455522788     1.994273011980
C           -0.038485614478     4.656126796766     2.629676412728
C           -1.032101007990     5.760141813177     2.473443638623
C           -2.460887935757     5.411120265407     2.214946794588
C           -2.846717534755     3.970436270122     2.127027419237
C           -3.821518278843     3.548620673645     1.075937463214
C           -4.372230410095     4.582120363614     0.148097918751
C           -4.519090248738     4.245377321643    -1.298379721418
C           -4.105013303998     2.888684260617    -1.767502535082
C           -3.363588552124     2.768363537612    -3.059509118852
C           -3.060494261846     4.009875126075    -3.832602783986
C           -1.717941811824     4.152895631221    -4.471531836105
C           -0.722143396613     3.046159700448    -4.318453700908
C            0.709261381494     3.399518725389    -4.052490612572
C            1.606397481483     2.372209495509    -3.441278336574
C            2.583409187816     2.796894106007    -2.395324665531
C            3.139585129796     1.763247033762    -1.467570482557
C            3.279334043578     2.098823340823    -0.019255890370
C            2.860347854025     3.455426475960     0.450141680553
C            2.119631646443     3.574001050657     1.740993868747
C            1.818918545340     2.330238176169     2.514973224167
C            0.473776307704     2.184107432594     3.146223590389
C           -0.521801014045     3.288017627895     2.986333102541
C           -1.951478213146     2.939390929572     2.733560205332
C           -2.338223788899     1.496349535408     2.646662457388
C           -3.319057966785     1.075192205274     1.602555681727
C           -3.865443999213     2.111105174884     0.670809011663
C           -4.000085852627     1.776840219293    -0.777166107386
C           -3.573435832230     0.420939984792    -1.247175635830
C           -2.790501449850     0.314599600078    -2.501252555654
C           -2.550417907092     1.541764282513    -3.311397939109
C           -1.209897831599     1.681552023972    -3.967052087356
C           -0.214335218365     0.578964342059    -3.742367844043
C            1.220751292039     0.930530675039    -3.522846351022
C            2.123763889550    -0.098043258642    -2.924543076456
C            3.098513933825     0.326071079131    -1.872884137904
C            3.650535413901    -0.706342066185    -0.945205836663
C            3.794523676583    -0.370331816690     0.502639826797
C            3.376552847533     0.985098110612     0.971759079479
C            2.632926178387     1.103029735527     2.262666619237
C            2.331251218404    -0.139711800333     3.034968957883
C            0.987161240960    -0.285464267445     3.668516760962
C           -0.009164860419     0.816472022318     3.505812913642
C           -1.438621734152     0.465678781502     3.250021703790
C           -1.822522044789    -0.976509671273     3.161860313554
C           -2.803455536430    -1.400734504932     2.119098460635
C           -3.365680054411    -0.365168463794     1.194933098283
C           -3.515922080415    -0.698881254718    -0.252319280324
C           -3.068358225058    -2.047212036083    -0.730350579375
C           -2.285665574330    -2.145989235044    -1.985086028226
C           -2.168564484304    -0.994102389719    -2.978752630361
C           -0.688731112416    -0.756412936420    -3.294905604796
C            0.290338579998    -1.871927142601    -3.223172151502
C            1.728587385480    -1.536737272562    -2.999412113822
C            2.623814623532    -2.568487043740    -2.393433090171
C            3.601531026928    -2.146511423320    -1.347268855227
C            4.155918174764    -3.178966303049    -0.421386273191
C            4.308296191274    -2.841335815874     1.026731633061
C            3.891196975341    -1.485206399832     1.494852194137
C            3.146387453767    -1.367927503707     2.783280919282
C            2.847271095612    -2.609939021509     3.557506869459
C            1.501863384075    -2.755847011797     4.191797725529
C            0.505237676270    -1.654336858574     4.027875716186
C           -0.922089254084    -2.006824445628     3.767087195972
C           -1.302285696740    -3.448451687568     3.675961094333
C           -2.276109852362    -3.873578642670     2.625651126402
C           -2.839221509932    -2.838980680517     1.706513198479
C           -2.984556764664    -3.168010432031     0.258655731545
C           -2.585298278259    -4.526099585926    -0.215207665617
C           -1.844269064185    -4.643705990623    -1.507095745580
C           -1.535623373336    -3.400342406993    -2.274446250197
C           -0.191384865057    -3.263199194909    -2.922760306870
C            0.803391577201    -4.360481280919    -2.748674153155
C            2.234879332969    -4.008767904009    -2.480994536317
C            3.127630172171    -5.037275790915    -1.871067217423
C            4.106535759517    -4.615839252575    -0.823791216096
C            4.665456694456    -5.649747750854     0.101909112583
C            4.819818015092    -5.312506502787     1.546548625008
C            4.405311192669    -3.954467746472     2.017508770259
C            3.662400127932    -3.836279415800     3.307674455433
C            3.362288269731    -5.079566347156     4.083666089650
C            2.019272510166    -5.225403407664     4.716081443972
C            1.020897710130    -4.123196815031     4.550084949764
C           -0.405806225117    -4.476104158026     4.285111799839
C           -0.787089082438    -5.918800056281     4.192855045007
C           -1.747102098039    -6.346372925673     3.134248922031
C           -2.316421704897    -5.310566679671     2.217405522222
C           -2.489645051958    -5.642868714843     0.772941399061
C           -2.092042204668    -7.003167528271     0.293503315046
C           -1.346933574206    -7.119381936822    -0.993484110703
C           -1.033036847086    -5.872245206382    -1.759867775904
C            0.317748570046    -5.728195198584    -2.381117575844
C            1.312446987182    -6.831718269948    -2.207418685294
C            2.741452137042    -6.480188393101    -1.958971733051
C            3.641711176894    -7.508205499674    -1.355180719123
C            4.616645184697    -7.087832502660    -0.300387867117
C            5.162348660313    -8.124943534629     0.622099244996
C            5.328971091568    -7.782471998669     2.071451575156
C            4.917782486806    -6.427135913899     2.537698510312
C            4.175275374423    -6.308550871313     3.831923621202
C            3.877553048642    -7.550623788211     4.601900392151
C            2.525361184535    -7.700119806721     5.230987343060
C            1.537202742709    -6.594067269781     5.072496985646
C            0.106002467682    -6.944399677528     4.812154327280
C           -0.270376333669    -8.382561353358     4.724612924273
C           -1.193677976354    -8.817914122306     3.627946326935
C           -1.779596862057    -7.783201647527     2.725206923123
C           -1.993842522842    -8.120987966981     1.282938181660
C           -1.623055817281    -9.486754171460     0.803434707345
C           -0.856771808220    -9.599159197392    -0.487276716936
C           -0.533395342306    -8.348754482244    -1.239304101786
C            0.831261900527    -8.198301628355    -1.837600371504
C            1.824046871860    -9.297640899669    -1.654021094574
C            3.264496995048    -8.946324126444    -1.445825839387
C            4.224138882353    -9.965561772198    -0.897957558297
C            5.131355130556    -9.560305580379     0.183711070388
C            5.471069859077    -8.873070228978     3.094772788962
C            4.735714983561    -8.759446215435     4.360896208293
C            2.020130885065    -9.057164522710     5.628455717751
C            0.601146064431    -9.383884639244     5.430446501667
C           -1.231703953070   -10.250377816069     3.206138351785
C           -1.590798696374   -10.606203616897     1.819217402435
C           -0.040191100823   -10.827110327395    -0.783614167823
C            1.328730356547   -10.660253544595    -1.291287442739
H           -1.690786917362   -12.777825127973     1.557995863898
H           -3.130826546903   -12.042154416883     2.361227151754
H           -2.889738112581   -11.842659656391     0.583458150352
H           -0.088598239232    10.438275632603    -5.879864649917
H            1.562151326692    11.166388370302    -4.078216398627
H            1.801065150322    11.758070519485    -1.534077836191
H            0.536823398530    11.961117943483     0.673686450514
H           -1.813020208347    11.713445884099     1.800807567075
H           -4.256422343771    11.109516162863     1.378087431402
H           -5.963106542798    10.367402143302    -0.489336626380
H           -6.211266746883     9.797234782561    -2.963028472928
H           -4.911688904148     9.577272508214    -5.244592166292
H           -2.612477204086     9.829323417630    -6.319578326400
H            4.456939294703   -10.853410373384    -1.489504167662
H            5.916293498898   -10.242141309913     0.515690424778
H            6.293515703949    -9.585837641787     3.009839644784
H            4.996185514178    -9.410314269160     5.197536321048
H            2.638338591830    -9.696753724399     6.261151790425
H            0.136329942803   -10.152871490639     6.051071726472
H           -0.824627040420   -11.016902455637     3.867762329901
H           -0.543602998905   -11.788595125898    -0.902318155721
H            2.026689108065   -11.497925434311    -1.254229324191
H           -2.675057621715    -1.296399202240    -3.911431727501
}
memory 35 GB
set reference uhf
set basis 6-31G(d)
set maxiter 1000
optimize('pbe')
--------------------------------------------------------------------------

  Memory set to  32.596 GiB by Python driver.

Scratch directory: /scratch1/adamcronin/
gradient() will perform analytic gradient computation.

*** tstart() called on skylm003.palmetto.clemson.edu
*** at Sun May 30 13:21:35 2021

   => Loading Basis Set <=

    Name: 6-31G(D)
    Role: ORBITAL
    Keyword: BASIS
    atoms 1-171   entry C          line   111 file /home/adamcronin/.conda/envs/p4env/share/psi4/basis/6-31g_d_.gbs 
    atoms 172-194 entry H          line    44 file /home/adamcronin/.conda/envs/p4env/share/psi4/basis/6-31g_d_.gbs 


         ---------------------------------------------------------
                                   SCF
               by Justin Turney, Rob Parrish, Andy Simmonett
                          and Daniel G. A. Smith
                              UKS Reference
                        1 Threads,  33378 MiB Core
         ---------------------------------------------------------

  ==> Geometry <==

    Molecular point group: c1
    Full point group: C1

    Geometry (in Angstrom), charge = 0, multiplicity = 2:

       Center              X                  Y                   Z               Mass       
    ------------   -----------------  -----------------  -----------------  -----------------
         C           -2.375525097209   -11.902987742173     1.563045596161    12.000000000000
         C            0.109736613434     9.781915264170    -5.030480994389    12.000000000000
         C            1.064946555226    10.198026665664    -3.997082519720    12.000000000000
         C            1.593094676373     9.172642432022    -3.035246227669    12.000000000000
         C            1.734668472468     9.509192152131    -1.582397749555    12.000000000000
         C            1.349265006733    10.872030540061    -1.084262159741    12.000000000000
         C            0.619383610077    10.989093768415     0.184034058140    12.000000000000
         C            0.280476136767     9.742718232723     0.949437240394    12.000000000000
         C           -1.062027532780     9.600902061139     1.598507124910    12.000000000000
         C           -2.074564866071    10.703274648955     1.480557352809    12.000000000000
         C           -3.478126995474    10.359974217800     1.223478809442    12.000000000000
         C           -3.859939189403     8.914666284021     1.082366988442    12.000000000000
         C           -4.831155466659     8.492091977037     0.024318362517    12.000000000000
         C           -5.428389564401     9.510550529019    -0.903465702104    12.000000000000
         C           -5.577973002504     9.177834511134    -2.325165947871    12.000000000000
         C           -5.128172974389     7.830127431290    -2.811557548087    12.000000000000
         C           -4.383315817159     7.709866320706    -4.105325638263    12.000000000000
         C           -4.089871095778     8.935150284077    -4.922397538631    12.000000000000
         C           -2.767579742375     9.078492679160    -5.542688596432    12.000000000000
         C           -1.748456540601     7.992813206966    -5.348080332920    12.000000000000
         C           -0.315831598062     8.343105520952    -5.092104932050    12.000000000000
         C            0.577623102459     7.312346761118    -4.488638547166    12.000000000000
         C            1.554550818026     7.737330559326    -3.437092899683    12.000000000000
         C            2.109340369943     6.704097943091    -2.510638222424    12.000000000000
         C            2.249601579359     7.039286376922    -1.063995956722    12.000000000000
         C            1.830789476610     8.395306778523    -0.595775862639    12.000000000000
         C            1.087462735504     8.514350638082     0.697433862487    12.000000000000
         C            0.792322944681     7.272641924848     1.475331831633    12.000000000000
         C           -0.547048129997     7.129805278843     2.116225748857    12.000000000000
         C           -1.541035992159     8.234775364092     1.957352036260    12.000000000000
         C           -2.971104905354     7.883908930596     1.691588454786    12.000000000000
         C           -3.355443487649     6.442415852366     1.603126722415    12.000000000000
         C           -4.327026504707     6.021458369425     0.553333669590    12.000000000000
         C           -4.877925570312     7.055815659443    -0.374057165687    12.000000000000
         C           -5.029932470928     6.717100567120    -1.823665632023    12.000000000000
         C           -4.617298167283     5.359151250486    -2.291948443496    12.000000000000
         C           -3.876013989503     5.239305247409    -3.581270161876    12.000000000000
         C           -3.573680789373     6.481848691611    -4.353821793540    12.000000000000
         C           -2.227058492018     6.626587965507    -4.990081350524    12.000000000000
         C           -1.233054260435     5.521299898408    -4.832575920227    12.000000000000
         C            0.194479154325     5.870769925195    -4.576435326779    12.000000000000
         C            1.092616142244     4.839732885041    -3.966286878705    12.000000000000
         C            2.067617403636     5.264882095288    -2.916632221517    12.000000000000
         C            2.623260684942     4.233880204283    -1.990066669035    12.000000000000
         C            2.763617764061     4.569646173665    -0.540215158069    12.000000000000
         C            2.345790131656     5.924358476049    -0.071440254223    12.000000000000
         C            1.605241330274     6.043209699927     1.219960744848    12.000000000000
         C            1.306645210990     4.801455522788     1.994273011980    12.000000000000
         C           -0.038485614478     4.656126796766     2.629676412728    12.000000000000
         C           -1.032101007990     5.760141813177     2.473443638623    12.000000000000
         C           -2.460887935757     5.411120265407     2.214946794588    12.000000000000
         C           -2.846717534755     3.970436270122     2.127027419237    12.000000000000
         C           -3.821518278843     3.548620673645     1.075937463214    12.000000000000
         C           -4.372230410095     4.582120363614     0.148097918751    12.000000000000
         C           -4.519090248738     4.245377321643    -1.298379721418    12.000000000000
         C           -4.105013303998     2.888684260617    -1.767502535082    12.000000000000
         C           -3.363588552124     2.768363537612    -3.059509118852    12.000000000000
         C           -3.060494261846     4.009875126075    -3.832602783986    12.000000000000
         C           -1.717941811824     4.152895631221    -4.471531836105    12.000000000000
         C           -0.722143396613     3.046159700448    -4.318453700908    12.000000000000
         C            0.709261381494     3.399518725389    -4.052490612572    12.000000000000
         C            1.606397481483     2.372209495509    -3.441278336574    12.000000000000
         C            2.583409187816     2.796894106007    -2.395324665531    12.000000000000
         C            3.139585129796     1.763247033762    -1.467570482557    12.000000000000
         C            3.279334043578     2.098823340823    -0.019255890370    12.000000000000
         C            2.860347854025     3.455426475960     0.450141680553    12.000000000000
         C            2.119631646443     3.574001050657     1.740993868747    12.000000000000
         C            1.818918545340     2.330238176169     2.514973224167    12.000000000000
         C            0.473776307704     2.184107432594     3.146223590389    12.000000000000
         C           -0.521801014045     3.288017627895     2.986333102541    12.000000000000
         C           -1.951478213146     2.939390929572     2.733560205332    12.000000000000
         C           -2.338223788899     1.496349535408     2.646662457388    12.000000000000
         C           -3.319057966785     1.075192205274     1.602555681727    12.000000000000
         C           -3.865443999213     2.111105174884     0.670809011663    12.000000000000
         C           -4.000085852627     1.776840219293    -0.777166107386    12.000000000000
         C           -3.573435832230     0.420939984792    -1.247175635830    12.000000000000
         C           -2.790501449850     0.314599600078    -2.501252555654    12.000000000000
         C           -2.550417907092     1.541764282513    -3.311397939109    12.000000000000
         C           -1.209897831599     1.681552023972    -3.967052087356    12.000000000000
         C           -0.214335218365     0.578964342059    -3.742367844043    12.000000000000
         C            1.220751292039     0.930530675039    -3.522846351022    12.000000000000
         C            2.123763889550    -0.098043258642    -2.924543076456    12.000000000000
         C            3.098513933825     0.326071079131    -1.872884137904    12.000000000000
         C            3.650535413901    -0.706342066185    -0.945205836663    12.000000000000
         C            3.794523676583    -0.370331816690     0.502639826797    12.000000000000
         C            3.376552847533     0.985098110612     0.971759079479    12.000000000000
         C            2.632926178387     1.103029735527     2.262666619237    12.000000000000
         C            2.331251218404    -0.139711800333     3.034968957883    12.000000000000
         C            0.987161240960    -0.285464267445     3.668516760962    12.000000000000
         C           -0.009164860419     0.816472022318     3.505812913642    12.000000000000
         C           -1.438621734152     0.465678781502     3.250021703790    12.000000000000
         C           -1.822522044789    -0.976509671273     3.161860313554    12.000000000000
         C           -2.803455536430    -1.400734504932     2.119098460635    12.000000000000
         C           -3.365680054411    -0.365168463794     1.194933098283    12.000000000000
         C           -3.515922080415    -0.698881254718    -0.252319280324    12.000000000000
         C           -3.068358225058    -2.047212036083    -0.730350579375    12.000000000000
         C           -2.285665574330    -2.145989235044    -1.985086028226    12.000000000000
         C           -2.168564484304    -0.994102389719    -2.978752630361    12.000000000000
         C           -0.688731112416    -0.756412936420    -3.294905604796    12.000000000000
         C            0.290338579998    -1.871927142601    -3.223172151502    12.000000000000
         C            1.728587385480    -1.536737272562    -2.999412113822    12.000000000000
         C            2.623814623532    -2.568487043740    -2.393433090171    12.000000000000
         C            3.601531026928    -2.146511423320    -1.347268855227    12.000000000000
         C            4.155918174764    -3.178966303049    -0.421386273191    12.000000000000
         C            4.308296191274    -2.841335815874     1.026731633061    12.000000000000
         C            3.891196975341    -1.485206399832     1.494852194137    12.000000000000
         C            3.146387453767    -1.367927503707     2.783280919282    12.000000000000
         C            2.847271095612    -2.609939021509     3.557506869459    12.000000000000
         C            1.501863384075    -2.755847011797     4.191797725529    12.000000000000
         C            0.505237676270    -1.654336858574     4.027875716186    12.000000000000
         C           -0.922089254084    -2.006824445628     3.767087195972    12.000000000000
         C           -1.302285696740    -3.448451687568     3.675961094333    12.000000000000
         C           -2.276109852362    -3.873578642670     2.625651126402    12.000000000000
         C           -2.839221509932    -2.838980680517     1.706513198479    12.000000000000
         C           -2.984556764664    -3.168010432031     0.258655731545    12.000000000000
         C           -2.585298278259    -4.526099585926    -0.215207665617    12.000000000000
         C           -1.844269064185    -4.643705990623    -1.507095745580    12.000000000000
         C           -1.535623373336    -3.400342406993    -2.274446250197    12.000000000000
         C           -0.191384865057    -3.263199194909    -2.922760306870    12.000000000000
         C            0.803391577201    -4.360481280919    -2.748674153155    12.000000000000
         C            2.234879332969    -4.008767904009    -2.480994536317    12.000000000000
         C            3.127630172171    -5.037275790915    -1.871067217423    12.000000000000
         C            4.106535759517    -4.615839252575    -0.823791216096    12.000000000000
         C            4.665456694456    -5.649747750854     0.101909112583    12.000000000000
         C            4.819818015092    -5.312506502787     1.546548625008    12.000000000000
         C            4.405311192669    -3.954467746472     2.017508770259    12.000000000000
         C            3.662400127932    -3.836279415800     3.307674455433    12.000000000000
         C            3.362288269731    -5.079566347156     4.083666089650    12.000000000000
         C            2.019272510166    -5.225403407664     4.716081443972    12.000000000000
         C            1.020897710130    -4.123196815031     4.550084949764    12.000000000000
         C           -0.405806225117    -4.476104158026     4.285111799839    12.000000000000
         C           -0.787089082438    -5.918800056281     4.192855045007    12.000000000000
         C           -1.747102098039    -6.346372925673     3.134248922031    12.000000000000
         C           -2.316421704897    -5.310566679671     2.217405522222    12.000000000000
         C           -2.489645051958    -5.642868714843     0.772941399061    12.000000000000
         C           -2.092042204668    -7.003167528271     0.293503315046    12.000000000000
         C           -1.346933574206    -7.119381936822    -0.993484110703    12.000000000000
         C           -1.033036847086    -5.872245206382    -1.759867775904    12.000000000000
         C            0.317748570046    -5.728195198584    -2.381117575844    12.000000000000
         C            1.312446987182    -6.831718269948    -2.207418685294    12.000000000000
         C            2.741452137042    -6.480188393101    -1.958971733051    12.000000000000
         C            3.641711176894    -7.508205499674    -1.355180719123    12.000000000000
         C            4.616645184697    -7.087832502660    -0.300387867117    12.000000000000
         C            5.162348660313    -8.124943534629     0.622099244996    12.000000000000
         C            5.328971091568    -7.782471998669     2.071451575156    12.000000000000
         C            4.917782486806    -6.427135913899     2.537698510312    12.000000000000
         C            4.175275374423    -6.308550871313     3.831923621202    12.000000000000
         C            3.877553048642    -7.550623788211     4.601900392151    12.000000000000
         C            2.525361184535    -7.700119806721     5.230987343060    12.000000000000
         C            1.537202742709    -6.594067269781     5.072496985646    12.000000000000
         C            0.106002467682    -6.944399677528     4.812154327280    12.000000000000
         C           -0.270376333669    -8.382561353358     4.724612924273    12.000000000000
         C           -1.193677976354    -8.817914122306     3.627946326935    12.000000000000
         C           -1.779596862057    -7.783201647527     2.725206923123    12.000000000000
         C           -1.993842522842    -8.120987966981     1.282938181660    12.000000000000
         C           -1.623055817281    -9.486754171460     0.803434707345    12.000000000000
         C           -0.856771808220    -9.599159197392    -0.487276716936    12.000000000000
         C           -0.533395342306    -8.348754482244    -1.239304101786    12.000000000000
         C            0.831261900527    -8.198301628355    -1.837600371504    12.000000000000
         C            1.824046871860    -9.297640899669    -1.654021094574    12.000000000000
         C            3.264496995048    -8.946324126444    -1.445825839387    12.000000000000
         C            4.224138882353    -9.965561772198    -0.897957558297    12.000000000000
         C            5.131355130556    -9.560305580379     0.183711070388    12.000000000000
         C            5.471069859077    -8.873070228978     3.094772788962    12.000000000000
         C            4.735714983561    -8.759446215435     4.360896208293    12.000000000000
         C            2.020130885065    -9.057164522710     5.628455717751    12.000000000000
         C            0.601146064431    -9.383884639244     5.430446501667    12.000000000000
         C           -1.231703953070   -10.250377816069     3.206138351785    12.000000000000
         C           -1.590798696374   -10.606203616897     1.819217402435    12.000000000000
         C           -0.040191100823   -10.827110327395    -0.783614167823    12.000000000000
         C            1.328730356547   -10.660253544595    -1.291287442739    12.000000000000
         H           -1.690786917362   -12.777825127973     1.557995863898     1.007825032230
         H           -3.130826546903   -12.042154416883     2.361227151754     1.007825032230
         H           -2.889738112581   -11.842659656391     0.583458150352     1.007825032230
         H           -0.088598239232    10.438275632603    -5.879864649917     1.007825032230
         H            1.562151326692    11.166388370302    -4.078216398627     1.007825032230
         H            1.801065150322    11.758070519485    -1.534077836191     1.007825032230
         H            0.536823398530    11.961117943483     0.673686450514     1.007825032230
         H           -1.813020208347    11.713445884099     1.800807567075     1.007825032230
         H           -4.256422343771    11.109516162863     1.378087431402     1.007825032230
         H           -5.963106542798    10.367402143302    -0.489336626380     1.007825032230
         H           -6.211266746883     9.797234782561    -2.963028472928     1.007825032230
         H           -4.911688904148     9.577272508214    -5.244592166292     1.007825032230
         H           -2.612477204086     9.829323417630    -6.319578326400     1.007825032230
         H            4.456939294703   -10.853410373384    -1.489504167662     1.007825032230
         H            5.916293498898   -10.242141309913     0.515690424778     1.007825032230
         H            6.293515703949    -9.585837641787     3.009839644784     1.007825032230
         H            4.996185514178    -9.410314269160     5.197536321048     1.007825032230
         H            2.638338591830    -9.696753724399     6.261151790425     1.007825032230
         H            0.136329942803   -10.152871490639     6.051071726472     1.007825032230
         H           -0.824627040420   -11.016902455637     3.867762329901     1.007825032230
         H           -0.543602998905   -11.788595125898    -0.902318155721     1.007825032230
         H            2.026689108065   -11.497925434311    -1.254229324191     1.007825032230
         H           -2.675057621715    -1.296399202240    -3.911431727501     1.007825032230

  Running in c1 symmetry.

  Rotational constants: A =      0.00062  B =      0.00017  C =      0.00017 [cm^-1]
  Rotational constants: A =     18.55315  B =      5.10842  C =      5.08313 [MHz]
  Nuclear repulsion = 40719.714445690697175

  Charge       = 0
  Multiplicity = 2
  Electrons    = 1049
  Nalpha       = 525
  Nbeta        = 524

  ==> Algorithm <==

  SCF Algorithm Type is DF.
  DIIS enabled.
  MOM disabled.
  Fractional occupation disabled.
  Guess Type is SAD.
  Energy threshold   = 1.00e-08
  Density threshold  = 1.00e-08
  Integral threshold = 1.00e-12

  ==> Primary Basis <==

  Basis Set: 6-31G(D)
    Blend: 6-31G(D)
    Number of shells: 1072
    Number of basis functions: 2611
    Number of Cartesian functions: 2611
    Spherical Harmonics?: false
    Max angular momentum: 2

  ==> DFT Potential <==

   => Composite Functional: PBE <= 

    PBE GGA Exchange-Correlation Functional

    J.P. Perdew et. al., Phys. Rev. Lett., 77(18), 3865-3868, 1996


    Deriv               =              1
    GGA                 =           TRUE
    Meta                =          FALSE

    Exchange Hybrid     =          FALSE
    MP2 Hybrid          =          FALSE

   => Exchange Functionals <=

    1.0000     XC_GGA_X_PBE

   => Correlation Functionals <=

    1.0000     XC_GGA_C_PBE

   => LibXC Density Thresholds  <==

    XC_GGA_C_PBE:  1.00E-12 
    XC_GGA_X_PBE:  1.00E-15 

   => Molecular Quadrature <=

    Radial Scheme          =       TREUTLER
    Pruning Scheme         =           NONE
    Nuclear Scheme         =       TREUTLER

    BS radius alpha        =              1
    Pruning alpha          =              1
    Radial Points          =             75
    Spherical Points       =            302
    Total Points           =        3682960
    Total Blocks           =          24578
    Max Points             =            256
    Max Functions          =            758
    Weights Tolerance      =       1.00E-15

   => Loading Basis Set <=

    Name: (6-31G(D) AUX)
    Role: JKFIT
    Keyword: DF_BASIS_SCF
    atoms 1-171   entry C          line   121 file /home/adamcronin/.conda/envs/p4env/share/psi4/basis/cc-pvdz-jkfit.gbs 
    atoms 172-194 entry H          line    51 file /home/adamcronin/.conda/envs/p4env/share/psi4/basis/cc-pvdz-jkfit.gbs 

  ==> Integral Setup <==

  ==> DiskDFJK: Density-Fitted J/K Matrices <==

    J tasked:                  Yes
    K tasked:                   No
    wK tasked:                  No
    OpenMP threads:              1
    Integrals threads:           1
    Memory [MiB]:            22530
    Algorithm:                Disk
    Integral Cache:           NONE
    Schwarz Cutoff:          1E-12
    Fitting Condition:       1E-10

   => Auxiliary Basis Set <=

  Basis Set: (6-31G(D) AUX)
    Blend: CC-PVDZ-JKFIT
    Number of shells: 4311
    Number of basis functions: 14426
    Number of Cartesian functions: 14426
    Spherical Harmonics?: false
    Max angular momentum: 3

  Cached 6.3% of DFT collocation blocks in 2.380 [GiB].

  Minimum eigenvalue in the overlap matrix is 1.6523897074E-04.
  Reciprocal condition number of the overlap matrix is 2.1158630641E-05.
    Using symmetric orthogonalization.

  ==> Pre-Iterations <==

  SCF Guess: Superposition of Atomic Densities via on-the-fly atomic UHF (no occupation information).

   -------------------------
    Irrep   Nso     Nmo    
   -------------------------
     A       2611    2611 
   -------------------------
    Total    2611    2611
   -------------------------

  ==> Iterations <==

                           Total Energy        Delta E     RMS |[F,P]|

   @DF-UKS iter SAD: -6517.03732450977259   -6.51704e+03   0.00000e+00 
   @DF-UKS iter   1: -6518.44771670862974   -1.41039e+00   9.63966e-04 DIIS
   @DF-UKS iter   2: -6518.43270268262131    1.50140e-02   9.79176e-04 DIIS
   @DF-UKS iter   3: -6510.98574605795147    7.44696e+00   1.41125e-03 DIIS
   @DF-UKS iter   4: -6521.68444052626728   -1.06987e+01   3.15374e-04 DIIS
   @DF-UKS iter   5: -6521.46063547108497    2.23805e-01   3.52779e-04 DIIS
   @DF-UKS iter   6: -6521.97584231982182   -5.15207e-01   1.69518e-04 DIIS
   @DF-UKS iter   7: -6522.08704140566988   -1.11199e-01   8.57885e-05 DIIS
   @DF-UKS iter   8: -6522.11236114976055   -2.53197e-02   5.95541e-05 DIIS
   @DF-UKS iter   9: -6522.12541923530807   -1.30581e-02   3.15853e-05 DIIS
   @DF-UKS iter  10: -6522.13042198482435   -5.00275e-03   1.48598e-05 DIIS
   @DF-UKS iter  11: -6522.13181516843906   -1.39318e-03   5.31263e-06 DIIS
   @DF-UKS iter  12: -6522.13188164432358   -6.64759e-05   4.72862e-06 DIIS
   @DF-UKS iter  13: -6522.13200160699489   -1.19963e-04   1.97752e-06 DIIS
   @DF-UKS iter  14: -6522.13202483872010   -2.32317e-05   1.21786e-06 DIIS
   @DF-UKS iter  15: -6522.13203145391890   -6.61520e-06   1.27596e-06 DIIS
   @DF-UKS iter  16: -6522.13204253582808   -1.10819e-05   7.56885e-07 DIIS
   @DF-UKS iter  17: -6522.13204459537519   -2.05955e-06   5.94687e-07 DIIS
   @DF-UKS iter  18: -6522.13204674496956   -2.14959e-06   2.46946e-07 DIIS
   @DF-UKS iter  19: -6522.13204613438575    6.10584e-07   4.23737e-07 DIIS
   @DF-UKS iter  20: -6522.13204712579318   -9.91407e-07   1.68297e-07 DIIS
   @DF-UKS iter  21: -6522.13204726362892   -1.37836e-07   1.10756e-07 DIIS
   @DF-UKS iter  22: -6522.13204729220888   -2.85800e-08   1.08419e-07 DIIS
   @DF-UKS iter  23: -6522.13204736294574   -7.07369e-08   7.41137e-08 DIIS
   @DF-UKS iter  24: -6522.13204739370849   -3.07627e-08   4.27171e-08 DIIS
   @DF-UKS iter  25: -6522.13204740235233   -8.64384e-09   2.92881e-08 DIIS
   @DF-UKS iter  26: -6522.13204739653156    5.82077e-09   4.67843e-08 DIIS
   @DF-UKS iter  27: -6522.13204740676156   -1.02300e-08   1.43751e-08 DIIS
   @DF-UKS iter  28: -6522.13204740753281   -7.71252e-10   9.51081e-09 DIIS
  Energy and wave function converged.


  ==> Post-Iterations <==

   Electrons on quadrature grid:
      Nalpha   =  525.0026752154 ; deviation = 2.675e-03
      Nbeta    =  524.0026929183 ; deviation = 2.693e-03
      Ntotal   = 1049.0053681337 ; deviation = 5.368e-03 

   @Spin Contamination Metric:   2.374762010E-02
   @S^2 Expected:                7.500000000E-01
   @S^2 Observed:                7.737476201E-01
   @S   Expected:                5.000000000E-01
   @S   Observed:                5.000000000E-01

    Orbital Energies [Eh]
    ---------------------

    Alpha Occupied:                                                       

       1A     -9.956394     2A     -9.956282     3A     -9.956165  
       4A     -9.956088     5A     -9.956008     6A     -9.955953  
       7A     -9.955922     8A     -9.955917     9A     -9.955906  
      10A     -9.955801    11A     -9.955743    12A     -9.955707  
      13A     -9.955702    14A     -9.955669    15A     -9.955658  
      16A     -9.955634    17A     -9.955618    18A     -9.955603  
      19A     -9.955592    20A     -9.955577    21A     -9.955569  
      22A     -9.955524    23A     -9.955515    24A     -9.955515  
      25A     -9.955483    26A     -9.955459    27A     -9.955443  
      28A     -9.955437    29A     -9.955414    30A     -9.955406  
      31A     -9.955368    32A     -9.955359    33A     -9.955326  
      34A     -9.955307    35A     -9.955295    36A     -9.955280  
      37A     -9.955270    38A     -9.955226    39A     -9.955222  
      40A     -9.955214    41A     -9.955209    42A     -9.955206  
      43A     -9.955175    44A     -9.955152    45A     -9.955114  
      46A     -9.955082    47A     -9.955029    48A     -9.955021  
      49A     -9.954993    50A     -9.954989    51A     -9.954985  
      52A     -9.954977    53A     -9.954951    54A     -9.954914  
      55A     -9.954903    56A     -9.954891    57A     -9.954890  
      58A     -9.954880    59A     -9.954874    60A     -9.954797  
      61A     -9.954772    62A     -9.954747    63A     -9.954746  
      64A     -9.954743    65A     -9.954741    66A     -9.954716  
      67A     -9.954703    68A     -9.954691    69A     -9.954657  
      70A     -9.954652    71A     -9.954589    72A     -9.954586  
      73A     -9.954556    74A     -9.954549    75A     -9.954532  
      76A     -9.954519    77A     -9.954512    78A     -9.954489  
      79A     -9.954458    80A     -9.954391    81A     -9.954340  
      82A     -9.954288    83A     -9.954276    84A     -9.954273  
      85A     -9.954257    86A     -9.954215    87A     -9.954200  
      88A     -9.954136    89A     -9.954115    90A     -9.954100  
      91A     -9.954038    92A     -9.954017    93A     -9.953890  
      94A     -9.953876    95A     -9.953830    96A     -9.953401  
      97A     -9.953284    98A     -9.953252    99A     -9.953188  
     100A     -9.953178   101A     -9.953052   102A     -9.953043  
     103A     -9.952947   104A     -9.952916   105A     -9.952891  
     106A     -9.952799   107A     -9.952724   108A     -9.952723  
     109A     -9.952707   110A     -9.952686   111A     -9.952665  
     112A     -9.952612   113A     -9.952591   114A     -9.952520  
     115A     -9.952392   116A     -9.952379   117A     -9.952377  
     118A     -9.952339   119A     -9.952332   120A     -9.952301  
     121A     -9.952279   122A     -9.952258   123A     -9.952250  
     124A     -9.952244   125A     -9.952092   126A     -9.951952  
     127A     -9.951866   128A     -9.951848   129A     -9.951610  
     130A     -9.951428   131A     -9.951416   132A     -9.951177  
     133A     -9.951084   134A     -9.951037   135A     -9.950983  
     136A     -9.950974   137A     -9.950924   138A     -9.950838  
     139A     -9.950743   140A     -9.950706   141A     -9.950520  
     142A     -9.950485   143A     -9.950444   144A     -9.950394  
     145A     -9.950197   146A     -9.950003   147A     -9.949880  
     148A     -9.949589   149A     -9.949357   150A     -9.948729  
     151A     -9.948033   152A     -9.936690   153A     -9.936546  
     154A     -9.936475   155A     -9.936120   156A     -9.936094  
     157A     -9.935746   158A     -9.935470   159A     -9.935460  
     160A     -9.935449   161A     -9.935330   162A     -9.935254  
     163A     -9.935248   164A     -9.935113   165A     -9.935085  
     166A     -9.935075   167A     -9.935030   168A     -9.934993  
     169A     -9.934796   170A     -9.931097   171A     -9.917307  
     172A     -0.828109   173A     -0.821105   174A     -0.819874  
     175A     -0.818863   176A     -0.812529   177A     -0.812186  
     178A     -0.811077   179A     -0.802913   180A     -0.802011  
     181A     -0.796863   182A     -0.794210   183A     -0.793017  
     184A     -0.788480   185A     -0.788109   186A     -0.786758  
     187A     -0.786668   188A     -0.780243   189A     -0.777358  
     190A     -0.776651   191A     -0.772057   192A     -0.771302  
     193A     -0.763265   194A     -0.763087   195A     -0.759590  
     196A     -0.753474   197A     -0.751789   198A     -0.751712  
     199A     -0.750914   200A     -0.747108   201A     -0.747014  
     202A     -0.745814   203A     -0.745653   204A     -0.737243  
     205A     -0.736687   206A     -0.735515   207A     -0.730017  
     208A     -0.728210   209A     -0.727731   210A     -0.727406  
     211A     -0.722246   212A     -0.722141   213A     -0.712182  
     214A     -0.709356   215A     -0.708229   216A     -0.705273  
     217A     -0.704243   218A     -0.703092   219A     -0.702393  
     220A     -0.699183   221A     -0.697918   222A     -0.692612  
     223A     -0.692167   224A     -0.691589   225A     -0.688740  
     226A     -0.685882   227A     -0.683081   228A     -0.682609  
     229A     -0.681079   230A     -0.680243   231A     -0.677290  
     232A     -0.675762   233A     -0.671827   234A     -0.670400  
     235A     -0.670162   236A     -0.669092   237A     -0.664052  
     238A     -0.659947   239A     -0.657684   240A     -0.655989  
     241A     -0.655524   242A     -0.654142   243A     -0.653043  
     244A     -0.652951   245A     -0.650625   246A     -0.648826  
     247A     -0.647029   248A     -0.641839   249A     -0.640232  
     250A     -0.638734   251A     -0.636159   252A     -0.633869  
     253A     -0.628056   254A     -0.625256   255A     -0.618265  
     256A     -0.610502   257A     -0.597453   258A     -0.597220  
     259A     -0.592381   260A     -0.592143   261A     -0.591516  
     262A     -0.590793   263A     -0.589772   264A     -0.588224  
     265A     -0.586326   266A     -0.583828   267A     -0.582478  
     268A     -0.581281   269A     -0.580602   270A     -0.574759  
     271A     -0.574679   272A     -0.571716   273A     -0.567849  
     274A     -0.566869   275A     -0.564998   276A     -0.564234  
     277A     -0.563766   278A     -0.560023   279A     -0.551240  
     280A     -0.550426   281A     -0.547260   282A     -0.545377  
     283A     -0.543015   284A     -0.542262   285A     -0.541499  
     286A     -0.538349   287A     -0.538174   288A     -0.537002  
     289A     -0.535932   290A     -0.535307   291A     -0.533903  
     292A     -0.533724   293A     -0.533398   294A     -0.532892  
     295A     -0.530437   296A     -0.521537   297A     -0.521304  
     298A     -0.518940   299A     -0.506385   300A     -0.504596  
     301A     -0.499885   302A     -0.498656   303A     -0.492178  
     304A     -0.491191   305A     -0.490637   306A     -0.489465  
     307A     -0.488158   308A     -0.478518   309A     -0.477567  
     310A     -0.475683   311A     -0.472377   312A     -0.468977  
     313A     -0.466506   314A     -0.464524   315A     -0.463061  
     316A     -0.462647   317A     -0.462142   318A     -0.461837  
     319A     -0.461670   320A     -0.461423   321A     -0.461117  
     322A     -0.460893   323A     -0.460647   324A     -0.458958  
     325A     -0.458121   326A     -0.457494   327A     -0.454128  
     328A     -0.447418   329A     -0.446015   330A     -0.444755  
     331A     -0.443499   332A     -0.442400   333A     -0.434192  
     334A     -0.433998   335A     -0.432394   336A     -0.430768  
     337A     -0.430122   338A     -0.428964   339A     -0.427828  
     340A     -0.425029   341A     -0.424583   342A     -0.419432  
     343A     -0.418271   344A     -0.415776   345A     -0.410244  
     346A     -0.409984   347A     -0.408505   348A     -0.408131  
     349A     -0.406507   350A     -0.406215   351A     -0.404609  
     352A     -0.403665   353A     -0.403216   354A     -0.402929  
     355A     -0.401622   356A     -0.400528   357A     -0.399673  
     358A     -0.397723   359A     -0.396930   360A     -0.396194  
     361A     -0.393950   362A     -0.393298   363A     -0.392743  
     364A     -0.391742   365A     -0.391490   366A     -0.390936  
     367A     -0.390331   368A     -0.390008   369A     -0.389721  
     370A     -0.389337   371A     -0.389150   372A     -0.387885  
     373A     -0.386784   374A     -0.385818   375A     -0.384175  
     376A     -0.383969   377A     -0.383080   378A     -0.382916  
     379A     -0.382153   380A     -0.381252   381A     -0.380779  
     382A     -0.379780   383A     -0.379108   384A     -0.378643  
     385A     -0.376382   386A     -0.376033   387A     -0.374342  
     388A     -0.373107   389A     -0.372328   390A     -0.371646  
     391A     -0.370711   392A     -0.368564   393A     -0.368306  
     394A     -0.365966   395A     -0.365796   396A     -0.365291  
     397A     -0.364998   398A     -0.364119   399A     -0.363724  
     400A     -0.362963   401A     -0.361020   402A     -0.360516  
     403A     -0.360251   404A     -0.358342   405A     -0.357806  
     406A     -0.357456   407A     -0.356576   408A     -0.356115  
     409A     -0.355503   410A     -0.354810   411A     -0.353746  
     412A     -0.353364   413A     -0.352558   414A     -0.350897  
     415A     -0.349430   416A     -0.348659   417A     -0.348248  
     418A     -0.347709   419A     -0.347260   420A     -0.344725  
     421A     -0.343463   422A     -0.342227   423A     -0.341820  
     424A     -0.339444   425A     -0.338884   426A     -0.335220  
     427A     -0.335017   428A     -0.330232   429A     -0.327684  
     430A     -0.326138   431A     -0.325897   432A     -0.322257  
     433A     -0.321535   434A     -0.321345   435A     -0.319479  
     436A     -0.317608   437A     -0.316713   438A     -0.314571  
     439A     -0.314076   440A     -0.309870   441A     -0.309677  
     442A     -0.309331   443A     -0.308442   444A     -0.307243  
     445A     -0.306334   446A     -0.305708   447A     -0.305024  
     448A     -0.302734   449A     -0.301952   450A     -0.298783  
     451A     -0.298574   452A     -0.297413   453A     -0.295742  
     454A     -0.294377   455A     -0.294184   456A     -0.293910  
     457A     -0.293877   458A     -0.292760   459A     -0.292247  
     460A     -0.291852   461A     -0.290376   462A     -0.289987  
     463A     -0.289605   464A     -0.286820   465A     -0.284995  
     466A     -0.284324   467A     -0.281274   468A     -0.278169  
     469A     -0.276986   470A     -0.276070   471A     -0.275693  
     472A     -0.274488   473A     -0.273698   474A     -0.273184  
     475A     -0.272086   476A     -0.271049   477A     -0.267668  
     478A     -0.266566   479A     -0.266427   480A     -0.263689  
     481A     -0.260501   482A     -0.258077   483A     -0.254080  
     484A     -0.252838   485A     -0.252040   486A     -0.251826  
     487A     -0.250699   488A     -0.246912   489A     -0.241997  
     490A     -0.237441   491A     -0.235849   492A     -0.235609  
     493A     -0.235469   494A     -0.235297   495A     -0.233779  
     496A     -0.233631   497A     -0.232257   498A     -0.228940  
     499A     -0.228476   500A     -0.224882   501A     -0.223408  
     502A     -0.222051   503A     -0.218736   504A     -0.216714  
     505A     -0.214245   506A     -0.213428   507A     -0.212591  
     508A     -0.210700   509A     -0.208757   510A     -0.208478  
     511A     -0.206971   512A     -0.205211   513A     -0.201656  
     514A     -0.198843   515A     -0.197477   516A     -0.193675  
     517A     -0.190935   518A     -0.189515   519A     -0.187382  
     520A     -0.187190   521A     -0.181029   522A     -0.170304  
     523A     -0.158867   524A     -0.153958   525A     -0.144081  

    Alpha Virtual:                                                        

     526A     -0.128770   527A     -0.125345   528A     -0.110666  
     529A     -0.103699   530A     -0.101089   531A     -0.099283  
     532A     -0.098725   533A     -0.098302   534A     -0.096931  
     535A     -0.095703   536A     -0.094435   537A     -0.092962  
     538A     -0.089157   539A     -0.088510   540A     -0.087272  
     541A     -0.085589   542A     -0.085399   543A     -0.085136  
     544A     -0.084891   545A     -0.080932   546A     -0.077507  
     547A     -0.076617   548A     -0.076259   549A     -0.072958  
     550A     -0.069732   551A     -0.069009   552A     -0.066115  
     553A     -0.064719   554A     -0.062914   555A     -0.060579  
     556A     -0.057844   557A     -0.055429   558A     -0.054296  
     559A     -0.050856   560A     -0.048403   561A     -0.047278  
     562A     -0.046995   563A     -0.043081   564A     -0.042439  
     565A     -0.041447   566A     -0.039967   567A     -0.037220  
     568A     -0.034508   569A     -0.032402   570A     -0.024364  
     571A     -0.021112   572A     -0.019265   573A     -0.018325  
     574A     -0.015288   575A     -0.014861   576A     -0.010662  
     577A     -0.003911   578A     -0.000759   579A      0.001379  
     580A      0.002769   581A      0.005099   582A      0.009727  
     583A      0.012177   584A      0.013876   585A      0.014869  
     586A      0.015648   587A      0.016835   588A      0.018175  
     589A      0.023359   590A      0.025595   591A      0.027922  
     592A      0.028757   593A      0.030642   594A      0.035102  
     595A      0.037900   596A      0.039289   597A      0.041324  
     598A      0.045897   599A      0.047945   600A      0.048797  
     601A      0.049426   602A      0.050191   603A      0.051406  
     604A      0.052856   605A      0.053595   606A      0.055427  
     607A      0.059257   608A      0.060920   609A      0.064458  
     610A      0.065406   611A      0.067381   612A      0.072710  
     613A      0.075519   614A      0.075600   615A      0.078214  
     616A      0.084554   617A      0.085754   618A      0.086164  
     619A      0.087543   620A      0.092764   621A      0.095193  
     622A      0.096636   623A      0.098530   624A      0.098970  
     625A      0.099414   626A      0.101487   627A      0.104587  
     628A      0.105837   629A      0.111348   630A      0.111598  
     631A      0.114707   632A      0.115202   633A      0.117734  
     634A      0.118523   635A      0.119475   636A      0.121133  
     637A      0.122938   638A      0.125531   639A      0.126069  
     640A      0.127140   641A      0.127671   642A      0.128534  
     643A      0.130444   644A      0.131929   645A      0.132694  
     646A      0.134186   647A      0.134994   648A      0.135477  
     649A      0.136582   650A      0.137225   651A      0.138329  
     652A      0.138897   653A      0.140112   654A      0.140954  
     655A      0.141003   656A      0.142310   657A      0.143621  
     658A      0.144607   659A      0.145069   660A      0.146556  
     661A      0.147851   662A      0.151111   663A      0.152209  
     664A      0.152741   665A      0.152955   666A      0.153714  
     667A      0.154551   668A      0.155275   669A      0.155709  
     670A      0.156529   671A      0.158263   672A      0.159556  
     673A      0.160874   674A      0.161718   675A      0.162402  
     676A      0.162705   677A      0.164001   678A      0.164125  
     679A      0.165333   680A      0.166527   681A      0.166836  
     682A      0.167900   683A      0.169986   684A      0.170874  
     685A      0.171308   686A      0.174008   687A      0.174158  
     688A      0.175851   689A      0.176625   690A      0.178664  
     691A      0.180210   692A      0.180532   693A      0.182768  
     694A      0.184935   695A      0.187024   696A      0.189103  
     697A      0.192133   698A      0.192422   699A      0.194179  
     700A      0.194447   701A      0.195590   702A      0.196022  
     703A      0.199594   704A      0.200368   705A      0.202517  
     706A      0.203630   707A      0.204860   708A      0.205001  
     709A      0.207694   710A      0.212700   711A      0.213148  
     712A      0.215090   713A      0.218245   714A      0.219808  
     715A      0.223766   716A      0.223953   717A      0.225666  
     718A      0.226278   719A      0.227111   720A      0.228390  
     721A      0.229220   722A      0.230614   723A      0.231528  
     724A      0.231962   725A      0.232162   726A      0.233885  
     727A      0.234080   728A      0.234466   729A      0.236440  
     730A      0.236675   731A      0.243447   732A      0.245666  
     733A      0.247484   734A      0.249391   735A      0.250814  
     736A      0.252035   737A      0.253442   738A      0.254466  
     739A      0.261692   740A      0.262159   741A      0.262568  
     742A      0.265294   743A      0.268080   744A      0.269402  
     745A      0.270759   746A      0.275571   747A      0.275887  
     748A      0.277450   749A      0.279590   750A      0.280208  
     751A      0.281173   752A      0.284303   753A      0.287212  
     754A      0.289958   755A      0.291095   756A      0.291747  
     757A      0.293179   758A      0.294259   759A      0.297490  
     760A      0.298239   761A      0.299291   762A      0.300801  
     763A      0.303056   764A      0.303553   765A      0.305359  
     766A      0.305568   767A      0.305777   768A      0.306864  
     769A      0.308357   770A      0.310153   771A      0.310785  
     772A      0.312691   773A      0.313034   774A      0.314865  
     775A      0.315872   776A      0.319387   777A      0.320823  
     778A      0.321359   779A      0.321843   780A      0.322278  
     781A      0.323342   782A      0.325630   783A      0.326296  
     784A      0.328000   785A      0.328761   786A      0.329079  
     787A      0.329566   788A      0.333264   789A      0.334241  
     790A      0.334544   791A      0.337315   792A      0.338710  
     793A      0.339843   794A      0.345810   795A      0.347750  
     796A      0.348576   797A      0.349801   798A      0.350949  
     799A      0.351659   800A      0.352110   801A      0.355678  
     802A      0.359990   803A      0.363269   804A      0.363902  
     805A      0.364938   806A      0.366364   807A      0.366849  
     808A      0.370368   809A      0.370981   810A      0.372394  
     811A      0.373340   812A      0.377141   813A      0.381768  
     814A      0.386047   815A      0.388131   816A      0.394026  
     817A      0.395235   818A      0.398410   819A      0.399902  
     820A      0.400172   821A      0.400246   822A      0.402015  
     823A      0.403919   824A      0.406107   825A      0.407061  
     826A      0.409207   827A      0.409524   828A      0.412934  
     829A      0.420956   830A      0.421136   831A      0.423144  
     832A      0.424480   833A      0.425266   834A      0.425899  
     835A      0.426494   836A      0.427586   837A      0.431903  
     838A      0.432122   839A      0.435226   840A      0.435472  
     841A      0.439692   842A      0.441306   843A      0.443152  
     844A      0.444541   845A      0.445797   846A      0.446929  
     847A      0.447687   848A      0.448692   849A      0.449134  
     850A      0.450057   851A      0.450152   852A      0.450795  
     853A      0.452642   854A      0.455381   855A      0.455721  
     856A      0.457153   857A      0.457656   858A      0.458498  
     859A      0.459499   860A      0.461547   861A      0.461803  
     862A      0.463927   863A      0.464663   864A      0.465269  
     865A      0.465668   866A      0.466679   867A      0.467476  
     868A      0.468192   869A      0.470328   870A      0.471111  
     871A      0.471312   872A      0.471507   873A      0.471865  
     874A      0.472067   875A      0.472501   876A      0.472889  
     877A      0.473662   878A      0.475000   879A      0.475063  
     880A      0.475573   881A      0.476245   882A      0.477011  
     883A      0.478974   884A      0.479404   885A      0.480111  
     886A      0.480374   887A      0.480695   888A      0.481193  
     889A      0.481519   890A      0.481776   891A      0.482366  
     892A      0.483693   893A      0.485029   894A      0.485342  
     895A      0.485463   896A      0.486068   897A      0.486549  
     898A      0.487081   899A      0.487202   900A      0.487686  
     901A      0.487953   902A      0.488549   903A      0.488927  
     904A      0.489468   905A      0.489632   906A      0.490391  
     907A      0.490458   908A      0.491465   909A      0.492028  
     910A      0.492542   911A      0.493092   912A      0.493517  
     913A      0.493992   914A      0.494302   915A      0.495163  
     916A      0.495278   917A      0.495621   918A      0.496121  
     919A      0.497285   920A      0.497780   921A      0.498165  
     922A      0.498329   923A      0.498535   924A      0.499201  
     925A      0.499973   926A      0.500698   927A      0.501600  
     928A      0.502068   929A      0.502443   930A      0.502844  
     931A      0.503613   932A      0.504401   933A      0.504581  
     934A      0.505741   935A      0.505869   936A      0.506288  
     937A      0.507150   938A      0.507977   939A      0.508067  
     940A      0.509681   941A      0.510131   942A      0.510445  
     943A      0.510893   944A      0.511282   945A      0.511684  
     946A      0.512171   947A      0.512487   948A      0.513986  
     949A      0.514582   950A      0.515057   951A      0.516027  
     952A      0.516333   953A      0.516664   954A      0.516959  
     955A      0.517670   956A      0.517772   957A      0.518838  
     958A      0.519014   959A      0.519305   960A      0.520363  
     961A      0.520825   962A      0.521247   963A      0.522365  
     964A      0.522663   965A      0.523039   966A      0.523191  
     967A      0.523430   968A      0.523960   969A      0.524311  
     970A      0.524707   971A      0.525163   972A      0.525746  
     973A      0.526200   974A      0.526920   975A      0.527224  
     976A      0.528365   977A      0.528548   978A      0.528827  
     979A      0.529596   980A      0.530320   981A      0.531881  
     982A      0.532088   983A      0.533526   984A      0.533780  
     985A      0.536219   986A      0.536937   987A      0.537725  
     988A      0.538046   989A      0.538510   990A      0.541333  
     991A      0.542277   992A      0.542560   993A      0.543954  
     994A      0.545923   995A      0.546346   996A      0.547201  
     997A      0.548290   998A      0.549353   999A      0.549596  
    1000A      0.550584  1001A      0.551887  1002A      0.552311  
    1003A      0.554136  1004A      0.555220  1005A      0.560878  
    1006A      0.562425  1007A      0.563069  1008A      0.565234  
    1009A      0.565986  1010A      0.569263  1011A      0.570523  
    1012A      0.571664  1013A      0.572288  1014A      0.572438  
    1015A      0.573079  1016A      0.573682  1017A      0.576895  
    1018A      0.579608  1019A      0.581137  1020A      0.583148  
    1021A      0.584363  1022A      0.586022  1023A      0.587169  
    1024A      0.588614  1025A      0.589384  1026A      0.590240  
    1027A      0.593710  1028A      0.594306  1029A      0.594620  
    1030A      0.594982  1031A      0.595885  1032A      0.596377  
    1033A      0.596721  1034A      0.596877  1035A      0.597522  
    1036A      0.597768  1037A      0.598402  1038A      0.598968  
    1039A      0.599274  1040A      0.599455  1041A      0.599633  
    1042A      0.599924  1043A      0.600301  1044A      0.600845  
    1045A      0.601156  1046A      0.602090  1047A      0.602608  
    1048A      0.602827  1049A      0.604199  1050A      0.604756  
    1051A      0.605820  1052A      0.607373  1053A      0.608187  
    1054A      0.609610  1055A      0.613696  1056A      0.615887  
    1057A      0.619000  1058A      0.621410  1059A      0.623209  
    1060A      0.624616  1061A      0.625475  1062A      0.625903  
    1063A      0.626451  1064A      0.629258  1065A      0.630464  
    1066A      0.634756  1067A      0.636085  1068A      0.636295  
    1069A      0.637380  1070A      0.643916  1071A      0.644405  
    1072A      0.646538  1073A      0.648559  1074A      0.649647  
    1075A      0.651416  1076A      0.653748  1077A      0.656696  
    1078A      0.657245  1079A      0.659524  1080A      0.660556  
    1081A      0.661708  1082A      0.665183  1083A      0.665269  
    1084A      0.667993  1085A      0.668463  1086A      0.669731  
    1087A      0.670403  1088A      0.673153  1089A      0.673212  
    1090A      0.674364  1091A      0.675178  1092A      0.675884  
    1093A      0.677087  1094A      0.677348  1095A      0.678830  
    1096A      0.680513  1097A      0.682486  1098A      0.683023  
    1099A      0.687330  1100A      0.687463  1101A      0.688099  
    1102A      0.688850  1103A      0.689047  1104A      0.690702  
    1105A      0.692635  1106A      0.693058  1107A      0.694194  
    1108A      0.695216  1109A      0.695604  1110A      0.698444  
    1111A      0.700192  1112A      0.700723  1113A      0.702225  
    1114A      0.703605  1115A      0.707043  1116A      0.707759  
    1117A      0.708773  1118A      0.710043  1119A      0.712870  
    1120A      0.713640  1121A      0.715560  1122A      0.717021  
    1123A      0.721845  1124A      0.724084  1125A      0.726597  
    1126A      0.727970  1127A      0.729252  1128A      0.729444  
    1129A      0.733566  1130A      0.734091  1131A      0.734616  
    1132A      0.735741  1133A      0.737307  1134A      0.737989  
    1135A      0.740261  1136A      0.741558  1137A      0.742547  
    1138A      0.745147  1139A      0.745493  1140A      0.748805  
    1141A      0.750052  1142A      0.751807  1143A      0.755158  
    1144A      0.757471  1145A      0.758959  1146A      0.763640  
    1147A      0.765867  1148A      0.766779  1149A      0.770727  
    1150A      0.776863  1151A      0.778192  1152A      0.778708  
    1153A      0.782404  1154A      0.782993  1155A      0.790767  
    1156A      0.792405  1157A      0.795609  1158A      0.797487  
    1159A      0.798128  1160A      0.800184  1161A      0.800985  
    1162A      0.801821  1163A      0.802800  1164A      0.803070  
    1165A      0.803992  1166A      0.804289  1167A      0.805027  
    1168A      0.805724  1169A      0.806387  1170A      0.807107  
    1171A      0.807545  1172A      0.807733  1173A      0.808321  
    1174A      0.809245  1175A      0.810585  1176A      0.810816  
    1177A      0.811639  1178A      0.812983  1179A      0.813130  
    1180A      0.814805  1181A      0.814980  1182A      0.815204  
    1183A      0.815486  1184A      0.817426  1185A      0.817605  
    1186A      0.819819  1187A      0.821146  1188A      0.821861  
    1189A      0.822429  1190A      0.823425  1191A      0.824830  
    1192A      0.825274  1193A      0.826400  1194A      0.827864  
    1195A      0.829220  1196A      0.830669  1197A      0.831341  
    1198A      0.831902  1199A      0.834012  1200A      0.834126  
    1201A      0.834686  1202A      0.835172  1203A      0.836909  
    1204A      0.838389  1205A      0.838871  1206A      0.839951  
    1207A      0.842168  1208A      0.843772  1209A      0.844324  
    1210A      0.847472  1211A      0.847880  1212A      0.849274  
    1213A      0.855692  1214A      0.857220  1215A      0.857799  
    1216A      0.859486  1217A      0.860409  1218A      0.861772  
    1219A      0.865380  1220A      0.866460  1221A      0.867269  
    1222A      0.870765  1223A      0.872217  1224A      0.873814  
    1225A      0.874284  1226A      0.876126  1227A      0.876553  
    1228A      0.877685  1229A      0.879135  1230A      0.880185  
    1231A      0.880619  1232A      0.881906  1233A      0.883159  
    1234A      0.884262  1235A      0.886423  1236A      0.887063  
    1237A      0.889665  1238A      0.891137  1239A      0.891698  
    1240A      0.892554  1241A      0.893728  1242A      0.895563  
    1243A      0.896959  1244A      0.898414  1245A      0.900801  
    1246A      0.901254  1247A      0.903406  1248A      0.905828  
    1249A      0.908876  1250A      0.911239  1251A      0.911756  
    1252A      0.913128  1253A      0.918347  1254A      0.919000  
    1255A      0.919736  1256A      0.920648  1257A      0.921538  
    1258A      0.922126  1259A      0.923925  1260A      0.924147  
    1261A      0.927936  1262A      0.928867  1263A      0.932211  
    1264A      0.932562  1265A      0.933587  1266A      0.936020  
    1267A      0.937714  1268A      0.938127  1269A      0.939750  
    1270A      0.943234  1271A      0.943895  1272A      0.946106  
    1273A      0.949620  1274A      0.949988  1275A      0.953495  
    1276A      0.954955  1277A      0.955568  1278A      0.956454  
    1279A      0.958317  1280A      0.960217  1281A      0.961640  
    1282A      0.962901  1283A      0.964776  1284A      0.967576  
    1285A      0.969251  1286A      0.969709  1287A      0.971900  
    1288A      0.973617  1289A      0.974903  1290A      0.976684  
    1291A      0.977332  1292A      0.980031  1293A      0.981655  
    1294A      0.983161  1295A      0.983979  1296A      0.987414  
    1297A      0.989570  1298A      0.990622  1299A      0.993595  
    1300A      0.994961  1301A      0.995853  1302A      0.996671  
    1303A      1.003291  1304A      1.004832  1305A      1.004954  
    1306A      1.008282  1307A      1.009292  1308A      1.009775  
    1309A      1.011433  1310A      1.012365  1311A      1.013945  
    1312A      1.015307  1313A      1.015733  1314A      1.016990  
    1315A      1.018126  1316A      1.019269  1317A      1.020634  
    1318A      1.024308  1319A      1.025567  1320A      1.026981  
    1321A      1.028038  1322A      1.028763  1323A      1.029096  
    1324A      1.031526  1325A      1.032196  1326A      1.033754  
    1327A      1.034201  1328A      1.036978  1329A      1.038483  
    1330A      1.038717  1331A      1.040515  1332A      1.042937  
    1333A      1.045609  1334A      1.047658  1335A      1.048074  
    1336A      1.048689  1337A      1.049894  1338A      1.052560  
    1339A      1.053725  1340A      1.054795  1341A      1.059000  
    1342A      1.060384  1343A      1.060481  1344A      1.062412  
    1345A      1.065206  1346A      1.068119  1347A      1.069570  
    1348A      1.070291  1349A      1.071079  1350A      1.074849  
    1351A      1.076509  1352A      1.077756  1353A      1.078333  
    1354A      1.080215  1355A      1.081734  1356A      1.082445  
    1357A      1.083013  1358A      1.084237  1359A      1.085068  
    1360A      1.086788  1361A      1.088757  1362A      1.089131  
    1363A      1.091259  1364A      1.091508  1365A      1.095580  
    1366A      1.096294  1367A      1.097629  1368A      1.099364  
    1369A      1.102347  1370A      1.103110  1371A      1.104354  
    1372A      1.104604  1373A      1.106410  1374A      1.108420  
    1375A      1.108977  1376A      1.110595  1377A      1.112014  
    1378A      1.113541  1379A      1.114352  1380A      1.114932  
    1381A      1.117778  1382A      1.120025  1383A      1.121127  
    1384A      1.122393  1385A      1.122891  1386A      1.124640  
    1387A      1.127137  1388A      1.129476  1389A      1.131648  
    1390A      1.135597  1391A      1.136443  1392A      1.136801  
    1393A      1.138541  1394A      1.139909  1395A      1.141764  
    1396A      1.142676  1397A      1.144102  1398A      1.145904  
    1399A      1.147224  1400A      1.147912  1401A      1.151573  
    1402A      1.153829  1403A      1.154475  1404A      1.155609  
    1405A      1.155853  1406A      1.156944  1407A      1.158151  
    1408A      1.159418  1409A      1.160226  1410A      1.161813  
    1411A      1.164524  1412A      1.165948  1413A      1.167336  
    1414A      1.169074  1415A      1.169825  1416A      1.171327  
    1417A      1.171984  1418A      1.172022  1419A      1.172848  
    1420A      1.174826  1421A      1.176134  1422A      1.176594  
    1423A      1.178138  1424A      1.178569  1425A      1.179322  
    1426A      1.180188  1427A      1.181024  1428A      1.182388  
    1429A      1.183998  1430A      1.184963  1431A      1.185126  
    1432A      1.186217  1433A      1.187570  1434A      1.188675  
    1435A      1.189601  1436A      1.189722  1437A      1.189958  
    1438A      1.191224  1439A      1.192801  1440A      1.194618  
    1441A      1.195870  1442A      1.198206  1443A      1.199215  
    1444A      1.201517  1445A      1.204810  1446A      1.206591  
    1447A      1.207114  1448A      1.208018  1449A      1.208775  
    1450A      1.210766  1451A      1.213334  1452A      1.214091  
    1453A      1.216328  1454A      1.216781  1455A      1.218832  
    1456A      1.219447  1457A      1.222253  1458A      1.223265  
    1459A      1.224585  1460A      1.227518  1461A      1.228836  
    1462A      1.231381  1463A      1.232662  1464A      1.235862  
    1465A      1.237294  1466A      1.239579  1467A      1.242513  
    1468A      1.247264  1469A      1.250115  1470A      1.250419  
    1471A      1.252022  1472A      1.254484  1473A      1.257080  
    1474A      1.258050  1475A      1.259012  1476A      1.262643  
    1477A      1.264280  1478A      1.265564  1479A      1.266845  
    1480A      1.273508  1481A      1.276277  1482A      1.277313  
    1483A      1.278556  1484A      1.285084  1485A      1.287828  
    1486A      1.290706  1487A      1.291545  1488A      1.294900  
    1489A      1.297174  1490A      1.298984  1491A      1.299920  
    1492A      1.301520  1493A      1.302736  1494A      1.306424  
    1495A      1.308685  1496A      1.310465  1497A      1.315000  
    1498A      1.315547  1499A      1.318244  1500A      1.319403  
    1501A      1.320443  1502A      1.324487  1503A      1.329364  
    1504A      1.331481  1505A      1.332474  1506A      1.336279  
    1507A      1.337295  1508A      1.338305  1509A      1.339666  
    1510A      1.343677  1511A      1.345197  1512A      1.347730  
    1513A      1.348951  1514A      1.350951  1515A      1.352726  
    1516A      1.353275  1517A      1.353768  1518A      1.356632  
    1519A      1.357183  1520A      1.359608  1521A      1.359970  
    1522A      1.361429  1523A      1.362270  1524A      1.363956  
    1525A      1.366807  1526A      1.367301  1527A      1.371088  
    1528A      1.371096  1529A      1.373095  1530A      1.375171  
    1531A      1.377083  1532A      1.378305  1533A      1.379353  
    1534A      1.381141  1535A      1.382361  1536A      1.382630  
    1537A      1.382860  1538A      1.383540  1539A      1.384133  
    1540A      1.385982  1541A      1.386317  1542A      1.387160  
    1543A      1.388554  1544A      1.388714  1545A      1.389944  
    1546A      1.390478  1547A      1.391809  1548A      1.392990  
    1549A      1.393797  1550A      1.394577  1551A      1.394637  
    1552A      1.395655  1553A      1.396331  1554A      1.397942  
    1555A      1.400379  1556A      1.401248  1557A      1.402890  
    1558A      1.403317  1559A      1.405155  1560A      1.406498  
    1561A      1.407515  1562A      1.409045  1563A      1.409365  
    1564A      1.412543  1565A      1.415063  1566A      1.415836  
    1567A      1.417099  1568A      1.417597  1569A      1.419009  
    1570A      1.420036  1571A      1.422814  1572A      1.423103  
    1573A      1.424738  1574A      1.425540  1575A      1.426883  
    1576A      1.428387  1577A      1.428687  1578A      1.430031  
    1579A      1.433837  1580A      1.434576  1581A      1.436859  
    1582A      1.437693  1583A      1.440186  1584A      1.443423  
    1585A      1.444889  1586A      1.446780  1587A      1.448438  
    1588A      1.451985  1589A      1.453294  1590A      1.456026  
    1591A      1.456847  1592A      1.457955  1593A      1.459783  
    1594A      1.460125  1595A      1.461030  1596A      1.463250  
    1597A      1.464454  1598A      1.466297  1599A      1.469904  
    1600A      1.470879  1601A      1.472528  1602A      1.473877  
    1603A      1.474497  1604A      1.479212  1605A      1.480419  
    1606A      1.481449  1607A      1.484065  1608A      1.485057  
    1609A      1.487047  1610A      1.489933  1611A      1.492317  
    1612A      1.494188  1613A      1.498045  1614A      1.500455  
    1615A      1.502935  1616A      1.505780  1617A      1.506964  
    1618A      1.510015  1619A      1.512065  1620A      1.515762  
    1621A      1.517910  1622A      1.519450  1623A      1.520701  
    1624A      1.521872  1625A      1.524388  1626A      1.525013  
    1627A      1.529092  1628A      1.530104  1629A      1.530855  
    1630A      1.531767  1631A      1.533186  1632A      1.533623  
    1633A      1.535495  1634A      1.539891  1635A      1.540276  
    1636A      1.544052  1637A      1.544319  1638A      1.548388  
    1639A      1.549825  1640A      1.551645  1641A      1.552121  
    1642A      1.552750  1643A      1.553648  1644A      1.555393  
    1645A      1.555789  1646A      1.557001  1647A      1.558114  
    1648A      1.558461  1649A      1.558900  1650A      1.559757  
    1651A      1.560682  1652A      1.561172  1653A      1.561900  
    1654A      1.563338  1655A      1.563922  1656A      1.565503  
    1657A      1.566915  1658A      1.567965  1659A      1.569123  
    1660A      1.570823  1661A      1.572326  1662A      1.572778  
    1663A      1.573787  1664A      1.574466  1665A      1.575203  
    1666A      1.576234  1667A      1.577437  1668A      1.578137  
    1669A      1.578359  1670A      1.579039  1671A      1.579517  
    1672A      1.580156  1673A      1.581020  1674A      1.582482  
    1675A      1.583210  1676A      1.585394  1677A      1.588330  
    1678A      1.589080  1679A      1.591304  1680A      1.592639  
    1681A      1.593389  1682A      1.595110  1683A      1.595654  
    1684A      1.596842  1685A      1.600113  1686A      1.603739  
    1687A      1.605146  1688A      1.605713  1689A      1.608902  
    1690A      1.610168  1691A      1.611336  1692A      1.612028  
    1693A      1.612509  1694A      1.612875  1695A      1.613773  
    1696A      1.615050  1697A      1.619895  1698A      1.622200  
    1699A      1.622527  1700A      1.623201  1701A      1.623744  
    1702A      1.627243  1703A      1.629713  1704A      1.630371  
    1705A      1.631452  1706A      1.632161  1707A      1.635102  
    1708A      1.636129  1709A      1.636671  1710A      1.638246  
    1711A      1.638875  1712A      1.640287  1713A      1.641036  
    1714A      1.642017  1715A      1.642515  1716A      1.642750  
    1717A      1.645112  1718A      1.647417  1719A      1.647996  
    1720A      1.649285  1721A      1.650599  1722A      1.652189  
    1723A      1.653485  1724A      1.655045  1725A      1.656610  
[...]
         C            0.186096486592     5.721021771648    -4.449611236941    12.000000000000
         C            1.058965892139     4.712442710378    -3.856029920187    12.000000000000
         C            2.007161082068     5.125766570605    -2.834692474868    12.000000000000
         C            2.547109217425     4.122021696626    -1.936182223412    12.000000000000
         C            2.683480081558     4.448341900777    -0.524167944398    12.000000000000
         C            2.277370524051     5.765225968599    -0.069939820794    12.000000000000
         C            1.556852325485     5.880476560033     1.185311039260    12.000000000000
         C            1.267196886538     4.671910111701     1.935702237682    12.000000000000
         C           -0.042835905051     4.530481127757     2.553302171965    12.000000000000
         C           -1.006071833615     5.605917546038     2.401889705710    12.000000000000
         C           -2.395172122369     5.268013849934     2.150271277331    12.000000000000
         C           -2.769359095328     3.866694436118     2.063375091018    12.000000000000
         C           -3.718743208343     3.458441075179     1.040056598404    12.000000000000
         C           -4.252848359718     4.467934165927     0.141685412630    12.000000000000
         C           -4.396034097727     4.144073975967    -1.264161077570    12.000000000000
         C           -3.996605896908     2.823587814278    -1.720614532289    12.000000000000
         C           -3.275218360597     2.707594258191    -2.979182993518    12.000000000000
         C           -2.978236929710     3.915607710055    -3.727656662949    12.000000000000
         C           -1.673357364246     4.050271736342    -4.348278924010    12.000000000000
         C           -0.707613706691     2.967215568521    -4.200556824625    12.000000000000
         C            0.689014650288     3.312812549600    -3.940618307125    12.000000000000
         C            1.561290535890     2.312349161313    -3.347186013344    12.000000000000
         C            2.510262541733     2.724729685416    -2.329205551840    12.000000000000
         C            3.051976459920     1.716111399723    -1.427581429953    12.000000000000
         C            3.186338054584     2.041913731918    -0.019181866026    12.000000000000
         C            2.777739381037     3.362894209055     0.436257075867    12.000000000000
         C            2.056263567454     3.477502109792     1.690389691126    12.000000000000
         C            1.764119000784     2.265157382852     2.441586746475    12.000000000000
         C            0.455795893609     2.122746553952     3.053144412855    12.000000000000
         C           -0.511495576276     3.198773627400     2.897511686407    12.000000000000
         C           -1.901192435904     2.860476489170     2.649923955636    12.000000000000
         C           -2.276184078995     1.454329803818     2.562598537456    12.000000000000
         C           -3.228870739583     1.046512701020     1.546924851659    12.000000000000
         C           -3.761339051126     2.060375776633     0.645121112857    12.000000000000
         C           -3.895364238329     1.739854384057    -0.762366108280    12.000000000000
         C           -3.483970999882     0.417496571947    -1.225370409188    12.000000000000
         C           -2.738056292222     0.322519928118    -2.441303942229    12.000000000000
         C           -2.492302045879     1.511438364971    -3.225585948560    12.000000000000
         C           -1.180074333998     1.642379416935    -3.863460958024    12.000000000000
         C           -0.204948913054     0.562406449582    -3.647241591187    12.000000000000
         C            1.190423197671     0.907649106136    -3.427983012688    12.000000000000
         C            2.066799165384    -0.094357210850    -2.846724485842    12.000000000000
         C            3.014622558304     0.318535306234    -1.820499580970    12.000000000000
         C            3.549310278878    -0.687026735062    -0.919666091266    12.000000000000
         C            3.687763087620    -0.361080875499     0.488501352625    12.000000000000
         C            3.281069138158     0.957387592220     0.942730417321    12.000000000000
         C            2.555510524611     1.071324327171     2.198096192657    12.000000000000
         C            2.262930482799    -0.138248738362     2.947341681078    12.000000000000
         C            0.955532629866    -0.281047126850     3.561117284696    12.000000000000
         C           -0.012654256023     0.791476197219     3.401162504022    12.000000000000
         C           -1.402198811516     0.450020859128     3.149748795982    12.000000000000
         C           -1.773906027534    -0.953847751451     3.064172778700    12.000000000000
         C           -2.726100009137    -1.367130573796     2.050341104556    12.000000000000
         C           -3.273688865489    -0.357749239988     1.148171763212    12.000000000000
         C           -3.423026965039    -0.682549098563    -0.257240490472    12.000000000000
         C           -2.987810098740    -2.004860464262    -0.718165665601    12.000000000000
         C           -2.238161294152    -2.111955360478    -1.930794408615    12.000000000000
         C           -2.124650006207    -0.973506204319    -2.918154384142    12.000000000000
         C           -0.653437994848    -0.735617474430    -3.225759270614    12.000000000000
         C            0.285614169032    -1.819345316247    -3.142891613116    12.000000000000
         C            1.684905377787    -1.493942635161    -2.918694813353    12.000000000000
         C            2.552637794119    -2.500585006663    -2.326886872600    12.000000000000
         C            3.502332062581    -2.090310693719    -1.309134534293    12.000000000000
         C            4.039897212723    -3.095683413383    -0.409916782710    12.000000000000
         C            4.187553506810    -2.767133682772     1.000438658700    12.000000000000
         C            3.781561315054    -1.447819201440     1.452951904362    12.000000000000
         C            3.056362799839    -1.334492855983     2.704793303418    12.000000000000
         C            2.767315296879    -2.543094390795     3.456608457346    12.000000000000
         C            1.457056724294    -2.686072895042     4.073085604831    12.000000000000
         C            0.488717998695    -1.614103131833     3.910918645054    12.000000000000
         C           -0.898300196305    -1.957714550287     3.656066617730    12.000000000000
         C           -1.264589083686    -3.360433688061     3.571129630009    12.000000000000
         C           -2.211934362640    -3.775805416322     2.549724603520    12.000000000000
         C           -2.759450460270    -2.769694259853     1.655283097642    12.000000000000
         C           -2.901673240930    -3.094477908886     0.250067044708    12.000000000000
         C           -2.511589260861    -4.415062728154    -0.205597845251    12.000000000000
         C           -1.790595145997    -4.530373610036    -1.463133412830    12.000000000000
         C           -1.499264382227    -3.321759157994    -2.211562808413    12.000000000000
         C           -0.186397918850    -3.180535979408    -2.845061010459    12.000000000000
         C            0.778117205162    -4.244537550634    -2.672337520774    12.000000000000
         C            2.174879515721    -3.902015104757    -2.410637104469    12.000000000000
         C            3.040211510656    -4.902349091267    -1.817361942803    12.000000000000
         C            3.992709617482    -4.492439190682    -0.798762351476    12.000000000000
         C            4.537751205734    -5.500130895557     0.101876357443    12.000000000000
         C            4.687247921467    -5.172835125855     1.505297586957    12.000000000000
         C            4.282098800407    -3.850038412072     1.961844274001    12.000000000000
         C            3.559341875121    -3.735763978905     3.216057946024    12.000000000000
         C            3.269744608434    -4.947287653962     3.971491642123    12.000000000000
         C            1.965325759600    -5.089790266090     4.585719309689    12.000000000000
         C            0.993042754926    -4.015992651517     4.421972246419    12.000000000000
         C           -0.393571359004    -4.360428216622     4.164228669501    12.000000000000
         C           -0.762028306773    -5.766193248464     4.077658189898    12.000000000000
         C           -1.694248174329    -6.182896613316     3.050108551704    12.000000000000
         C           -2.248339457707    -5.174319354328     2.157273928657    12.000000000000
         C           -2.414661032821    -5.501301663370     0.755246724471    12.000000000000
         C           -2.025709013189    -6.827090808369     0.291455683844    12.000000000000
         C           -1.302539884263    -6.939021843859    -0.958005032475    12.000000000000
         C           -0.999865960642    -5.723450740009    -1.705475729326    12.000000000000
         C            0.310748167397    -5.578622521634    -2.311201369596    12.000000000000
         C            1.279411414985    -6.652811101796    -2.140865325814    12.000000000000
         C            2.667370915430    -6.310107857558    -1.900730256004    12.000000000000
         C            3.544467919394    -7.311279696064    -1.316808466312    12.000000000000
         C            4.496134704757    -6.899524448305    -0.287169458771    12.000000000000
         C            5.029439513088    -7.906181096091     0.605583150584    12.000000000000
         C            5.190423050946    -7.573211693795     2.017631063361    12.000000000000
         C            4.787105419997    -6.258535632208     2.467838245722    12.000000000000
         C            4.061985431971    -6.143319083698     3.731297908835    12.000000000000
         C            3.777530813468    -7.348824180115     4.480260807713    12.000000000000
         C            2.460939185034    -7.494934768779     5.094095054596    12.000000000000
         C            1.501675551921    -6.421906202868     4.936278941736    12.000000000000
         C            0.104676728501    -6.765706806155     4.682883282173    12.000000000000
         C           -0.259986042155    -8.161293513693     4.603569091117    12.000000000000
         C           -1.161267510959    -8.585586636736     3.535962282316    12.000000000000
         C           -1.726107123089    -7.580725701927     2.657344170156    12.000000000000
         C           -1.932274339122    -7.917892833433     1.252449934308    12.000000000000
         C           -1.577628022143    -9.249315751805     0.791982502449    12.000000000000
         C           -0.827441975372    -9.354948966472    -0.468339037933    12.000000000000
         C           -0.513987378429    -8.136611108788    -1.195353375137    12.000000000000
         C            0.816107537021    -7.984243742528    -1.781190073191    12.000000000000
         C            1.781514666261    -9.051159814932    -1.607687449582    12.000000000000
         C            3.184245235547    -8.708293947949    -1.405731467657    12.000000000000
         C            4.137048596886    -9.694634367924    -0.870672876232    12.000000000000
         C            5.003253994512    -9.303391198654     0.158636013183    12.000000000000
         C            5.332584759371    -8.627792691484     3.031279923233    12.000000000000
         C            4.631317308085    -8.519466787820     4.239057219762    12.000000000000
         C            1.952985062027    -8.812625933470     5.493978017317    12.000000000000
         C            0.600203805615    -9.128842135975     5.304608686193    12.000000000000
         C           -1.220087485121    -9.977587951497     3.124355560931    12.000000000000
         C           -1.561470856428   -10.342535972783     1.799293926092    12.000000000000
         C           -0.017274275298   -10.545675993636    -0.776402179726    12.000000000000
         C            1.288401727152   -10.377431114307    -1.265729193379    12.000000000000
         H           -1.644516095416   -12.529450522155     1.572608956208     1.007825032230
         H           -3.079537154977   -11.784755485065     2.352493772881     1.007825032230
         H           -2.832392742817   -11.620000347205     0.581211360541     1.007825032230
         H           -0.079153433096    10.195708883973    -5.731262392126     1.007825032230
         H            1.526968286698    10.899982835402    -3.978811695792     1.007825032230
         H            1.760124001064    11.476862077366    -1.487731132607     1.007825032230
         H            0.531320348502    11.674260003907     0.659224641884     1.007825032230
         H           -1.768822558053    11.433295626161     1.764095069724     1.007825032230
         H           -4.145634133103    10.850143250483     1.352954665154     1.007825032230
         H           -5.816177299322    10.128420123642    -0.475029142303     1.007825032230
         H           -6.056816096048     9.577668854876    -2.881202205536     1.007825032230
         H           -4.784047418391     9.363269986148    -5.115328353281     1.007825032230
         H           -2.548286315397     9.604059914849    -6.161374060923     1.007825032230
         H            4.360943606748   -10.595880598326    -1.449079280409     1.007825032230
         H            5.784216699364    -9.990212186743     0.495613475531     1.007825032230
         H            6.146499001142    -9.352792299436     2.943565093670     1.007825032230
         H            4.885467530788    -9.181606436558     5.071231131800     1.007825032230
         H            2.573393158929    -9.459208606702     6.120556652529     1.007825032230
         H            0.141492999367    -9.913585847413     5.913574774538     1.007825032230
         H           -0.828778598319   -10.745728159394     3.797478070328     1.007825032230
         H           -0.509695828476   -11.517418449973    -0.877333405407     1.007825032230
         H            1.984935470606   -11.218732252083    -1.238911666036     1.007825032230
         H           -2.635572909298    -1.277646869336    -3.857012016742     1.007825032230

  Running in c1 symmetry.

  Rotational constants: A =      0.00065  B =      0.00018  C =      0.00018 [cm^-1]
  Rotational constants: A =     19.59887  B =      5.38518  C =      5.35817 [MHz]
  Nuclear repulsion = 41827.640059562036186

  Charge       = 0
  Multiplicity = 2
  Electrons    = 1049
  Nalpha       = 525
  Nbeta        = 524

  ==> Algorithm <==

  SCF Algorithm Type is DF.
  DIIS enabled.
  MOM disabled.
  Fractional occupation disabled.
  Guess Type is READ.
  Energy threshold   = 1.00e-08
  Density threshold  = 1.00e-08
  Integral threshold = 1.00e-12

  ==> Primary Basis <==

  Basis Set: 6-31G(D)
    Blend: 6-31G(D)
    Number of shells: 1072
    Number of basis functions: 2611
    Number of Cartesian functions: 2611
    Spherical Harmonics?: false
    Max angular momentum: 2

  ==> DFT Potential <==

   => Composite Functional: PBE <= 

    PBE GGA Exchange-Correlation Functional

    J.P. Perdew et. al., Phys. Rev. Lett., 77(18), 3865-3868, 1996


    Deriv               =              1
    GGA                 =           TRUE
    Meta                =          FALSE

    Exchange Hybrid     =          FALSE
    MP2 Hybrid          =          FALSE

   => Exchange Functionals <=

    1.0000     XC_GGA_X_PBE

   => Correlation Functionals <=

    1.0000     XC_GGA_C_PBE

   => LibXC Density Thresholds  <==

    XC_GGA_C_PBE:  1.00E-12 
    XC_GGA_X_PBE:  1.00E-15 

   => Molecular Quadrature <=

    Radial Scheme          =       TREUTLER
    Pruning Scheme         =           NONE
    Nuclear Scheme         =       TREUTLER

    BS radius alpha        =              1
    Pruning alpha          =              1
    Radial Points          =             75
    Spherical Points       =            302
    Total Points           =        3664717
    Total Blocks           =          24444
    Max Points             =            256
    Max Functions          =            796
    Weights Tolerance      =       1.00E-15

   => Loading Basis Set <=

    Name: (6-31G(D) AUX)
    Role: JKFIT
    Keyword: DF_BASIS_SCF
    atoms 1-171   entry C          line   121 file /home/adamcronin/.conda/envs/p4env/share/psi4/basis/cc-pvdz-jkfit.gbs 
    atoms 172-194 entry H          line    51 file /home/adamcronin/.conda/envs/p4env/share/psi4/basis/cc-pvdz-jkfit.gbs 

   => Loading Basis Set <=

    Name: 6-31G(D)
    Role: ORBITAL
    Keyword: BASIS
    atoms 1-171   entry C          line   111 file /home/adamcronin/.conda/envs/p4env/share/psi4/basis/6-31g_d_.gbs 
    atoms 172-194 entry H          line    44 file /home/adamcronin/.conda/envs/p4env/share/psi4/basis/6-31g_d_.gbs 

  Reading orbitals from file 180, no projection.

  ==> Integral Setup <==

  ==> DiskDFJK: Density-Fitted J/K Matrices <==

    J tasked:                  Yes
    K tasked:                   No
    wK tasked:                  No
    OpenMP threads:              1
    Integrals threads:           1
    Memory [MiB]:            22530
    Algorithm:                Disk
    Integral Cache:           NONE
    Schwarz Cutoff:          1E-12
    Fitting Condition:       1E-10

   => Auxiliary Basis Set <=

  Basis Set: (6-31G(D) AUX)
    Blend: CC-PVDZ-JKFIT
    Number of shells: 4311
    Number of basis functions: 14426
    Number of Cartesian functions: 14426
    Spherical Harmonics?: false
    Max angular momentum: 3

  Cached 5.9% of DFT collocation blocks in 2.385 [GiB].

  Minimum eigenvalue in the overlap matrix is 1.0074975495E-04.
  Reciprocal condition number of the overlap matrix is 1.2312246769E-05.
    Using symmetric orthogonalization.

  ==> Pre-Iterations <==

  SCF Guess: Orbitals guess was supplied from a previous computation.

   -------------------------------------------------------
    Irrep   Nso     Nmo     Nalpha   Nbeta   Ndocc  Nsocc
   -------------------------------------------------------
     A       2611    2611     525     524     524       1
   -------------------------------------------------------
    Total    2611    2611     525     524     524       1
   -------------------------------------------------------

  ==> Iterations <==

                           Total Energy        Delta E     RMS |[F,P]|

   @DF-UKS iter   0: -6524.99130917251750   -6.52499e+03   2.34323e-04 
   @DF-UKS iter   1: -6522.29189554364712    2.69941e+00   2.81216e-04 DIIS
   @DF-UKS iter   2: -6473.45325682628027    4.88386e+01   2.86752e-03 DIIS
   @DF-UKS iter   3: -6522.01647663376934   -4.85632e+01   3.92162e-04 DIIS
   @DF-UKS iter   4: -6522.46572666175780   -4.49250e-01   2.37363e-04 DIIS
   @DF-UKS iter   5: -6522.72482373629464   -2.59097e-01   6.19468e-05 DIIS
   @DF-UKS iter   6: -6522.72224746331631    2.57627e-03   6.27075e-05 DIIS
   @DF-UKS iter   7: -6522.73914429439174   -1.68968e-02   3.80271e-05 DIIS
   @DF-UKS iter   8: -6522.74666718566732   -7.52289e-03   1.12169e-05 DIIS
   @DF-UKS iter   9: -6522.74721156484156   -5.44379e-04   4.44223e-06 DIIS
   @DF-UKS iter  10: -6522.74726600958093   -5.44447e-05   2.95348e-06 DIIS
   @DF-UKS iter  11: -6522.74730577747687   -3.97679e-05   9.36504e-07 DIIS
   @DF-UKS iter  12: -6522.74730530653324    4.70944e-07   1.03216e-06 DIIS
   @DF-UKS iter  13: -6522.74731034311117   -5.03658e-06   4.44352e-07 DIIS
   @DF-UKS iter  14: -6522.74731132824672   -9.85136e-07   2.60408e-07 DIIS
   @DF-UKS iter  15: -6522.74731160396186   -2.75715e-07   2.89316e-07 DIIS
   @DF-UKS iter  16: -6522.74731181097741   -2.07016e-07   2.50429e-07 DIIS
