
    -----------------------------------------------------------------------
          Psi4: An Open-Source Ab Initio Electronic Structure Package
                               Psi4 1.1 release

                         Git: Rev {HEAD} add49b9 


    R. M. Parrish, L. A. Burns, D. G. A. Smith, A. C. Simmonett,
    A. E. DePrince III, E. G. Hohenstein, U. Bozkaya, A. Yu. Sokolov,
    R. Di Remigio, R. M. Richard, J. F. Gonthier, A. M. James,
    H. R. McAlexander, A. Kumar, M. Saitow, X. Wang, B. P. Pritchard,
    P. Verma, H. F. Schaefer III, K. Patkowski, R. A. King, E. F. Valeev,
    F. A. Evangelista, J. M. Turney, T. D. Crawford, and C. D. Sherrill,
    J. Chem. Theory Comput. in press (2017).
    (doi: 10.1021/acs.jctc.7b00174)

    -----------------------------------------------------------------------


    Psi4 started on: Tuesday, 15 December 2020 07:00PM

    Process ID: 172222
    PSIDATADIR: /usr/local/Dist/psi4conda/share/psi4
    Memory:     500.0 MiB
    Threads:    10
    
  ==> Input File <==

--------------------------------------------------------------------------
molecule{
C           -1.773825235259   -11.637763125063     1.446780780036
C            0.153577020048     9.379657267307    -4.860732609745
C            1.050012612487     9.771059213360    -3.887463145145
C            1.540477491605     8.823038667405    -2.925910665891
C            1.677380906599     9.147621485150    -1.520755554341
C            1.331673239128    10.439102908414    -0.995091514333
C            0.647471996655    10.548101462187     0.198293240709
C            0.270975971678     9.371553350368     0.931641797991
C           -1.029553160027     9.232058286098     1.554184569156
C           -2.029351889278    10.260993367201     1.479785981940
C           -3.349882355556     9.936833673720     1.244917662752
C           -3.742957349258     8.565960767124     1.071406190257
C           -4.683992012907     8.155243468612     0.049593162981
C           -5.286868923556     9.091473932250    -0.858082227194
C           -5.417230252504     8.782630505219    -2.196652020160
C           -4.952394369018     7.520454601976    -2.701220120093
C           -4.234122848344     7.405932434179    -3.954017463336
C           -3.938709565150     8.546891146091    -4.775492043558
C           -2.699749035253     8.679591313787    -5.368343826310
C           -1.688139846522     7.678502737757    -5.172401295610
C           -0.301809254687     8.018637447845    -4.925758976771
C            0.531179062144     7.036131064051    -4.309364507498
C            1.467312041270     7.444958458245    -3.292907596056
C            1.987863354087     6.441789920065    -2.406865856587
C            2.122718696526     6.760871129133    -1.025602941572
C            1.731735137057     8.070537337679    -0.584721326513
C            1.017131512105     8.184336849282     0.661522099361
C            0.734936823862     6.981849819714     1.394256736747
C           -0.543534272846     6.844677680903     2.006159906065
C           -1.489455680083     7.915476662615     1.861165122977
C           -2.868559954450     7.576916667321     1.615768269413
C           -3.220895016037     6.187382148179     1.529438313875
C           -4.145985627393     5.783651601142     0.525001702219
C           -4.682468769259     6.785268610945    -0.353293693772
C           -4.818871151696     6.462700162112    -1.751202862046
C           -4.411340270982     5.157149462533    -2.189280357591
C           -3.705203342132     5.044595038806    -3.420755055533
C           -3.434159942256     6.242131524586    -4.165678714386
C           -2.140325757837     6.380597596512    -4.784953634231
C           -1.192874332040     5.313586257078    -4.622792109723
C            0.169874649868     5.647993703054    -4.380171871199
C            1.033616616884     4.653059893490    -3.808383611618
C            1.964842130569     5.059790669595    -2.797339804737
C            2.499350657302     4.069850198372    -1.916601028236
C            2.635961947775     4.392366322675    -0.520799695384
C            2.230993221685     5.688474994490    -0.076356942496
C            1.520214817399     5.801673427200     1.163345566231
C            1.243201834445     4.614148874302     1.908112662658
C           -0.048915695081     4.475374741821     2.526186768839
C           -0.998404300952     5.531338240815     2.368333807848
C           -2.370185967180     5.194547994000     2.124015740165
C           -2.736215503451     3.815575857576     2.047288188870
C           -3.671232506150     3.407656020481     1.032316460281
C           -4.192957920741     4.399195602137     0.145702306409
C           -4.328905657437     4.078261466484    -1.244800242426
C           -3.938122832595     2.778747613040    -1.692010448591
C           -3.224593301713     2.664931875013    -2.936537066751
C           -2.937682994763     3.856594968406    -3.670764781668
C           -1.650547984138     3.994364122532    -4.286521890466
C           -0.702675856273     2.934966481646    -4.142481109504
C            0.674446029727     3.272955824455    -3.897122085645
C            1.527500509118     2.283775444837    -3.308291165068
C            2.457028439056     2.689797604702    -2.299442805783
C            2.989592166809     1.692622516834    -1.411837582156
C            3.125960538887     2.013754979363    -0.022327063697
C            2.724139898798     3.319390841995     0.424590419953
C            2.014848944737     3.432297257853     1.661892726749
C            1.733391793426     2.235293125510     2.406350470557
C            0.446878979228     2.096910195671     3.021282246334
C           -0.506877104806     3.161326292532     2.867630688456
C           -1.875875217773     2.825216346521     2.623532370740
C           -2.240091720002     1.437167375478     2.541839264620
C           -3.171180768936     1.031245322745     1.531500881517
C           -3.701098625389     2.029114016877     0.643075814956
C           -3.837197828196     1.708698106361    -0.744586048857
C           -3.439081982712     0.402166408767    -1.192428986073
C           -2.728678316867     0.288770730730    -2.431394858404
C           -2.444436067697     1.486665461553    -3.173266821586
C           -1.159704001303     1.624210620871    -3.787425978147
C           -0.206613275562     0.558880333880    -3.636270148407
C            1.164319129083     0.895487502889    -3.391693144103
C            2.022892132111    -0.093025371267    -2.814361578539
C            2.958608338350     0.315615130151    -1.799891906782
C            3.483044977792    -0.676789925423    -0.912422325800
C            3.619763938598    -0.355624310717     0.477061906751
C            3.226421400494     0.945388244189     0.924375942939
C            2.512701003426     1.058792217370     2.169222042356
C            2.226722171436    -0.134660618162     2.905419980192
C            0.940099084711    -0.273302640813     3.520060556874
C           -0.009584336174     0.787405453238     3.374477712164
C           -1.386883812257     0.449293197588     3.128371442551
C           -1.746740879020    -0.932866900847     3.039768588087
C           -2.678239231796    -1.338362648000     2.029640974623
C           -3.213089554251    -0.346583656953     1.147865193414
C           -3.350812896152    -0.669325938895    -0.248166904398
C           -2.947891787361    -1.968159329716    -0.693993086092
C           -2.237270462503    -2.081606045889    -1.932810690365
C           -1.957726994171    -0.891562048793    -2.676956627511
C           -0.664747685125    -0.752964118448    -3.294110090946
C            0.285682379578    -1.811036710325    -3.135822577027
C            1.656539912895    -1.474303737816    -2.891058644928
C            2.514884041635    -2.467209812235    -2.305261608295
C            3.445809007414    -2.060929975211    -1.297853057458
C            3.983263667903    -3.053402917614    -0.415325902012
C            4.120917141101    -2.730772931423     0.980395515768
C            3.714191029993    -1.431269957530     1.425820108802
C            3.004304897723    -1.319001878964     2.662828793580
C            2.726466035647    -2.510830446076     3.408324047055
C            1.433813364012    -2.650564173979     4.025079019351
C            0.482083308116    -1.590907227530     3.867250396291
C           -0.886875785529    -1.926776994967     3.622234176580
C           -1.253556901708    -3.309474376592     3.544625563054
C           -2.189657351493    -3.715745152950     2.530005204243
C           -2.713967564856    -2.721812933727     1.642186759209
C           -2.852064969367    -3.043603871972     0.254858181129
C           -2.461683807967    -4.347550375302    -0.193443691581
C           -1.747453617647    -4.461366563985    -1.437496428497
C           -1.458634438056    -3.265882878450    -2.172913212565
C           -0.172743215050    -3.127491130887    -2.784813194113
C            0.777528360768    -4.189313383956    -2.636972878133
C            2.154512132071    -3.851232889830    -2.392038695740
C            3.006298172459    -4.836715099410    -1.805012159105
C            3.940612509723    -4.429512636214    -0.796947003391
C            4.461546614061    -5.427883606946     0.094552645743
C            4.598262365228    -5.108561902426     1.475479880512
C            4.209268138672    -3.800565571443     1.923350412288
C            3.496971649504    -3.688751264544     3.162370015919
C            3.206797432202    -4.891007924179     3.893043037335
C            1.926819530667    -5.030487978344     4.501449477740
C            0.976762958975    -3.961717450161     4.363310026639
C           -0.395008551798    -4.297798988699     4.117899697160
C           -0.750332566603    -5.685807468525     4.022199213108
C           -1.676499313770    -6.085737530083     3.017261870863
C           -2.220939055626    -5.089447669781     2.140479572532
C           -2.360244284092    -5.414198815857     0.751954216305
C           -1.949856292334    -6.718669079260     0.309317964814
C           -1.242199578751    -6.829916464435    -0.919767607940
C           -0.967805729720    -5.635892041527    -1.670653110242
C            0.321136733465    -5.495741985180    -2.280496852390
C            1.272687280012    -6.556572920223    -2.109083465224
C            2.636452535436    -6.222743749679    -1.871288460049
C            3.495712974640    -7.220836175684    -1.299133273978
C            4.436372205717    -6.811926210830    -0.287490101898
C            5.003419776337    -7.797652068880     0.576174517084
C            5.144697612745    -7.472020884041     1.980545175631
C            4.705579971279    -6.185896347555     2.418918746187
C            3.988168213260    -6.074047667483     3.663829742757
C            3.732994637141    -7.252721607818     4.428416804051
C            2.428620525022    -7.397539448815     5.041564850771
C            1.477261321206    -6.349084120729     4.852795587542
C            0.099014636956    -6.686832967063     4.603871692900
C           -0.284353621224    -8.062141364120     4.548888376808
C           -1.236012017756    -8.463567148877     3.535797518932
C           -1.723075499188    -7.468157178563     2.640222309346
C           -1.864826290814    -7.802934587727     1.247186346365
C           -1.531655486479    -9.121360503142     0.797604818965
C           -0.794540421775    -9.228037017425    -0.448991432708
C           -0.474754378449    -8.019897010970    -1.151082986780
C            0.820850113186    -7.875711155082    -1.765106612620
C            1.766644210868    -8.939641066719    -1.661381239918
C            3.152619163167    -8.601668773006    -1.415326360082
C            4.085310357107    -9.545660602283    -0.865653517859
C            4.986820655583    -9.154106951013     0.102922334297
C            5.281158530267    -8.483459581985     2.991701458216
C            4.593867385909    -8.376612505534     4.183262573388
C            1.908629476624    -8.677704576174     5.435372839958
C            0.589420333588    -9.001991427474     5.192769282003
C           -1.436502636035    -9.822769075186     3.127694173417
C           -1.608512856919   -10.173845460041     1.798236381113
C           -0.017745212488   -10.383103072921    -0.818376636511
C            1.227052236311   -10.241816173705    -1.397722448515
H           -0.805138271272   -12.161563554223     1.347153637534
H           -2.332182062167   -12.152188228456     2.246995648017
H           -2.332368527545   -11.776301202619     0.507083498449
H           -0.319562182114    10.144489873393    -5.484010901547
H            1.265631082290    10.836596122066    -3.763142678062
H            1.474519306280    11.334403448594    -1.607738231513
H            0.264674883151    11.527083430281     0.502212763725
H           -1.729988959800    11.313239853240     1.458267598203
H           -4.064983043971    10.740029794056     1.042893913964
H           -5.508095351095    10.110081113227    -0.525220102556
H           -5.738711758399     9.563974677971    -2.891967759160
H           -4.637444026650     9.388085911023    -4.813913864746
H           -2.446720583387     9.622697454368    -5.862141184900
H            3.986238427379   -10.610169701317    -1.098952419677
H            5.581511128855    -9.917816019395     0.613189626686
H            5.809264671043    -9.414757547589     2.765629178103
H            4.594045778438    -9.225722752555     4.873406016469
H            2.589740792956    -9.458295772848     5.787419546487
H            0.257105248211   -10.032098430502     5.354271637802
H           -1.354322325271   -10.627682673009     3.867414186603
H           -0.342772504127   -11.381776380750    -0.526707542707
H            1.852422195798   -11.130519153902    -1.527534220562
}
set basis 6-31G(d)
memory 20 GB
set reference rhf
optimize('pbe')
--------------------------------------------------------------------------

  Memory set to  18.626 GiB by Python driver.
gradient() will perform analytic gradient computation.

*** tstart() called on node05.cluster
*** at Tue Dec 15 19:00:04 2020

   => Loading Basis Set <=

    Name: 6-31G(D)
    Role: ORBITAL
    Keyword: BASIS
    atoms 1-171   entry C          line   102 file /usr/local/Dist/psi4conda/share/psi4/basis/6-31g_d_.gbs 
    atoms 172-193 entry H          line    35 file /usr/local/Dist/psi4conda/share/psi4/basis/6-31g_d_.gbs 

    There are an even number of electrons - assuming singlet.
    Specify the multiplicity in the molecule input block.


         ---------------------------------------------------------
                                   SCF
            by Justin Turney, Rob Parrish, and Andy Simmonett
                              RKS Reference
                       10 Threads,  19073 MiB Core
         ---------------------------------------------------------

  ==> Geometry <==

    Molecular point group: c1
    Full point group: C1

    Geometry (in Angstrom), charge = 0, multiplicity = 1:

       Center              X                  Y                   Z               Mass       
    ------------   -----------------  -----------------  -----------------  -----------------
           C         -1.773825235259   -11.637763125063     1.446780780036    12.000000000000
           C          0.153577020048     9.379657267307    -4.860732609745    12.000000000000
           C          1.050012612487     9.771059213360    -3.887463145145    12.000000000000
           C          1.540477491605     8.823038667405    -2.925910665891    12.000000000000
           C          1.677380906599     9.147621485150    -1.520755554341    12.000000000000
           C          1.331673239128    10.439102908414    -0.995091514333    12.000000000000
           C          0.647471996655    10.548101462187     0.198293240709    12.000000000000
           C          0.270975971678     9.371553350368     0.931641797991    12.000000000000
           C         -1.029553160027     9.232058286098     1.554184569156    12.000000000000
           C         -2.029351889278    10.260993367201     1.479785981940    12.000000000000
           C         -3.349882355556     9.936833673720     1.244917662752    12.000000000000
           C         -3.742957349258     8.565960767124     1.071406190257    12.000000000000
           C         -4.683992012907     8.155243468612     0.049593162981    12.000000000000
           C         -5.286868923556     9.091473932250    -0.858082227194    12.000000000000
           C         -5.417230252504     8.782630505219    -2.196652020160    12.000000000000
           C         -4.952394369018     7.520454601976    -2.701220120093    12.000000000000
           C         -4.234122848344     7.405932434179    -3.954017463336    12.000000000000
           C         -3.938709565150     8.546891146091    -4.775492043558    12.000000000000
           C         -2.699749035253     8.679591313787    -5.368343826310    12.000000000000
           C         -1.688139846522     7.678502737757    -5.172401295610    12.000000000000
           C         -0.301809254687     8.018637447845    -4.925758976771    12.000000000000
           C          0.531179062144     7.036131064051    -4.309364507498    12.000000000000
           C          1.467312041270     7.444958458245    -3.292907596056    12.000000000000
           C          1.987863354087     6.441789920065    -2.406865856587    12.000000000000
           C          2.122718696526     6.760871129133    -1.025602941572    12.000000000000
           C          1.731735137057     8.070537337679    -0.584721326513    12.000000000000
           C          1.017131512105     8.184336849282     0.661522099361    12.000000000000
           C          0.734936823862     6.981849819714     1.394256736747    12.000000000000
           C         -0.543534272846     6.844677680903     2.006159906065    12.000000000000
           C         -1.489455680083     7.915476662615     1.861165122977    12.000000000000
           C         -2.868559954450     7.576916667321     1.615768269413    12.000000000000
           C         -3.220895016037     6.187382148179     1.529438313875    12.000000000000
           C         -4.145985627393     5.783651601142     0.525001702219    12.000000000000
           C         -4.682468769259     6.785268610945    -0.353293693772    12.000000000000
           C         -4.818871151696     6.462700162112    -1.751202862046    12.000000000000
           C         -4.411340270982     5.157149462533    -2.189280357591    12.000000000000
           C         -3.705203342132     5.044595038806    -3.420755055533    12.000000000000
           C         -3.434159942256     6.242131524586    -4.165678714386    12.000000000000
           C         -2.140325757837     6.380597596512    -4.784953634231    12.000000000000
           C         -1.192874332040     5.313586257078    -4.622792109723    12.000000000000
           C          0.169874649868     5.647993703054    -4.380171871199    12.000000000000
           C          1.033616616884     4.653059893490    -3.808383611618    12.000000000000
           C          1.964842130569     5.059790669595    -2.797339804737    12.000000000000
           C          2.499350657302     4.069850198372    -1.916601028236    12.000000000000
           C          2.635961947775     4.392366322675    -0.520799695384    12.000000000000
           C          2.230993221685     5.688474994490    -0.076356942496    12.000000000000
           C          1.520214817399     5.801673427200     1.163345566231    12.000000000000
           C          1.243201834445     4.614148874302     1.908112662658    12.000000000000
           C         -0.048915695081     4.475374741821     2.526186768839    12.000000000000
           C         -0.998404300952     5.531338240815     2.368333807848    12.000000000000
           C         -2.370185967180     5.194547994000     2.124015740165    12.000000000000
           C         -2.736215503451     3.815575857576     2.047288188870    12.000000000000
           C         -3.671232506150     3.407656020481     1.032316460281    12.000000000000
           C         -4.192957920741     4.399195602137     0.145702306409    12.000000000000
           C         -4.328905657437     4.078261466484    -1.244800242426    12.000000000000
           C         -3.938122832595     2.778747613040    -1.692010448591    12.000000000000
           C         -3.224593301713     2.664931875013    -2.936537066751    12.000000000000
           C         -2.937682994763     3.856594968406    -3.670764781668    12.000000000000
           C         -1.650547984138     3.994364122532    -4.286521890466    12.000000000000
           C         -0.702675856273     2.934966481646    -4.142481109504    12.000000000000
           C          0.674446029727     3.272955824455    -3.897122085645    12.000000000000
           C          1.527500509118     2.283775444837    -3.308291165068    12.000000000000
           C          2.457028439056     2.689797604702    -2.299442805783    12.000000000000
           C          2.989592166809     1.692622516834    -1.411837582156    12.000000000000
           C          3.125960538887     2.013754979363    -0.022327063697    12.000000000000
           C          2.724139898798     3.319390841995     0.424590419953    12.000000000000
           C          2.014848944737     3.432297257853     1.661892726749    12.000000000000
           C          1.733391793426     2.235293125510     2.406350470557    12.000000000000
           C          0.446878979228     2.096910195671     3.021282246334    12.000000000000
           C         -0.506877104806     3.161326292532     2.867630688456    12.000000000000
           C         -1.875875217773     2.825216346521     2.623532370740    12.000000000000
           C         -2.240091720002     1.437167375478     2.541839264620    12.000000000000
           C         -3.171180768936     1.031245322745     1.531500881517    12.000000000000
           C         -3.701098625389     2.029114016877     0.643075814956    12.000000000000
           C         -3.837197828196     1.708698106361    -0.744586048857    12.000000000000
           C         -3.439081982712     0.402166408767    -1.192428986073    12.000000000000
           C         -2.728678316867     0.288770730730    -2.431394858404    12.000000000000
           C         -2.444436067697     1.486665461553    -3.173266821586    12.000000000000
           C         -1.159704001303     1.624210620871    -3.787425978147    12.000000000000
           C         -0.206613275562     0.558880333880    -3.636270148407    12.000000000000
           C          1.164319129083     0.895487502889    -3.391693144103    12.000000000000
           C          2.022892132111    -0.093025371267    -2.814361578539    12.000000000000
           C          2.958608338350     0.315615130151    -1.799891906782    12.000000000000
           C          3.483044977792    -0.676789925423    -0.912422325800    12.000000000000
           C          3.619763938598    -0.355624310717     0.477061906751    12.000000000000
           C          3.226421400494     0.945388244189     0.924375942939    12.000000000000
           C          2.512701003426     1.058792217370     2.169222042356    12.000000000000
           C          2.226722171436    -0.134660618162     2.905419980192    12.000000000000
           C          0.940099084711    -0.273302640813     3.520060556874    12.000000000000
           C         -0.009584336174     0.787405453238     3.374477712164    12.000000000000
           C         -1.386883812257     0.449293197588     3.128371442551    12.000000000000
           C         -1.746740879020    -0.932866900847     3.039768588087    12.000000000000
           C         -2.678239231796    -1.338362648000     2.029640974623    12.000000000000
           C         -3.213089554251    -0.346583656953     1.147865193414    12.000000000000
           C         -3.350812896152    -0.669325938895    -0.248166904398    12.000000000000
           C         -2.947891787361    -1.968159329716    -0.693993086092    12.000000000000
           C         -2.237270462503    -2.081606045889    -1.932810690365    12.000000000000
           C         -1.957726994171    -0.891562048793    -2.676956627511    12.000000000000
           C         -0.664747685125    -0.752964118448    -3.294110090946    12.000000000000
           C          0.285682379578    -1.811036710325    -3.135822577027    12.000000000000
           C          1.656539912895    -1.474303737816    -2.891058644928    12.000000000000
           C          2.514884041635    -2.467209812235    -2.305261608295    12.000000000000
           C          3.445809007414    -2.060929975211    -1.297853057458    12.000000000000
           C          3.983263667903    -3.053402917614    -0.415325902012    12.000000000000
           C          4.120917141101    -2.730772931423     0.980395515768    12.000000000000
           C          3.714191029993    -1.431269957530     1.425820108802    12.000000000000
           C          3.004304897723    -1.319001878964     2.662828793580    12.000000000000
           C          2.726466035647    -2.510830446076     3.408324047055    12.000000000000
           C          1.433813364012    -2.650564173979     4.025079019351    12.000000000000
           C          0.482083308116    -1.590907227530     3.867250396291    12.000000000000
           C         -0.886875785529    -1.926776994967     3.622234176580    12.000000000000
           C         -1.253556901708    -3.309474376592     3.544625563054    12.000000000000
           C         -2.189657351493    -3.715745152950     2.530005204243    12.000000000000
           C         -2.713967564856    -2.721812933727     1.642186759209    12.000000000000
           C         -2.852064969367    -3.043603871972     0.254858181129    12.000000000000
           C         -2.461683807967    -4.347550375302    -0.193443691581    12.000000000000
           C         -1.747453617647    -4.461366563985    -1.437496428497    12.000000000000
           C         -1.458634438056    -3.265882878450    -2.172913212565    12.000000000000
           C         -0.172743215050    -3.127491130887    -2.784813194113    12.000000000000
           C          0.777528360768    -4.189313383956    -2.636972878133    12.000000000000
           C          2.154512132071    -3.851232889830    -2.392038695740    12.000000000000
           C          3.006298172459    -4.836715099410    -1.805012159105    12.000000000000
           C          3.940612509723    -4.429512636214    -0.796947003391    12.000000000000
           C          4.461546614061    -5.427883606946     0.094552645743    12.000000000000
           C          4.598262365228    -5.108561902426     1.475479880512    12.000000000000
           C          4.209268138672    -3.800565571443     1.923350412288    12.000000000000
           C          3.496971649504    -3.688751264544     3.162370015919    12.000000000000
           C          3.206797432202    -4.891007924179     3.893043037335    12.000000000000
           C          1.926819530667    -5.030487978344     4.501449477740    12.000000000000
           C          0.976762958975    -3.961717450161     4.363310026639    12.000000000000
           C         -0.395008551798    -4.297798988699     4.117899697160    12.000000000000
           C         -0.750332566603    -5.685807468525     4.022199213108    12.000000000000
           C         -1.676499313770    -6.085737530083     3.017261870863    12.000000000000
           C         -2.220939055626    -5.089447669781     2.140479572532    12.000000000000
           C         -2.360244284092    -5.414198815857     0.751954216305    12.000000000000
           C         -1.949856292334    -6.718669079260     0.309317964814    12.000000000000
           C         -1.242199578751    -6.829916464435    -0.919767607940    12.000000000000
           C         -0.967805729720    -5.635892041527    -1.670653110242    12.000000000000
           C          0.321136733465    -5.495741985180    -2.280496852390    12.000000000000
           C          1.272687280012    -6.556572920223    -2.109083465224    12.000000000000
           C          2.636452535436    -6.222743749679    -1.871288460049    12.000000000000
           C          3.495712974640    -7.220836175684    -1.299133273978    12.000000000000
           C          4.436372205717    -6.811926210830    -0.287490101898    12.000000000000
           C          5.003419776337    -7.797652068880     0.576174517084    12.000000000000
           C          5.144697612745    -7.472020884041     1.980545175631    12.000000000000
           C          4.705579971279    -6.185896347555     2.418918746187    12.000000000000
           C          3.988168213260    -6.074047667483     3.663829742757    12.000000000000
           C          3.732994637141    -7.252721607818     4.428416804051    12.000000000000
           C          2.428620525022    -7.397539448815     5.041564850771    12.000000000000
           C          1.477261321206    -6.349084120729     4.852795587542    12.000000000000
           C          0.099014636956    -6.686832967063     4.603871692900    12.000000000000
           C         -0.284353621224    -8.062141364120     4.548888376808    12.000000000000
           C         -1.236012017756    -8.463567148877     3.535797518932    12.000000000000
           C         -1.723075499188    -7.468157178563     2.640222309346    12.000000000000
           C         -1.864826290814    -7.802934587727     1.247186346365    12.000000000000
           C         -1.531655486479    -9.121360503142     0.797604818965    12.000000000000
           C         -0.794540421775    -9.228037017425    -0.448991432708    12.000000000000
           C         -0.474754378449    -8.019897010970    -1.151082986780    12.000000000000
           C          0.820850113186    -7.875711155082    -1.765106612620    12.000000000000
           C          1.766644210868    -8.939641066719    -1.661381239918    12.000000000000
           C          3.152619163167    -8.601668773006    -1.415326360082    12.000000000000
           C          4.085310357107    -9.545660602283    -0.865653517859    12.000000000000
           C          4.986820655583    -9.154106951013     0.102922334297    12.000000000000
           C          5.281158530267    -8.483459581985     2.991701458216    12.000000000000
           C          4.593867385909    -8.376612505534     4.183262573388    12.000000000000
           C          1.908629476624    -8.677704576174     5.435372839958    12.000000000000
           C          0.589420333588    -9.001991427474     5.192769282003    12.000000000000
           C         -1.436502636035    -9.822769075186     3.127694173417    12.000000000000
           C         -1.608512856919   -10.173845460041     1.798236381113    12.000000000000
           C         -0.017745212488   -10.383103072921    -0.818376636511    12.000000000000
           C          1.227052236311   -10.241816173705    -1.397722448515    12.000000000000
           H         -0.805138271272   -12.161563554223     1.347153637534     1.007825032070
           H         -2.332182062167   -12.152188228456     2.246995648017     1.007825032070
           H         -2.332368527545   -11.776301202619     0.507083498449     1.007825032070
           H         -0.319562182114    10.144489873393    -5.484010901547     1.007825032070
           H          1.265631082290    10.836596122066    -3.763142678062     1.007825032070
           H          1.474519306280    11.334403448594    -1.607738231513     1.007825032070
           H          0.264674883151    11.527083430281     0.502212763725     1.007825032070
           H         -1.729988959800    11.313239853240     1.458267598203     1.007825032070
           H         -4.064983043971    10.740029794056     1.042893913964     1.007825032070
           H         -5.508095351095    10.110081113227    -0.525220102556     1.007825032070
           H         -5.738711758399     9.563974677971    -2.891967759160     1.007825032070
           H         -4.637444026650     9.388085911023    -4.813913864746     1.007825032070
           H         -2.446720583387     9.622697454368    -5.862141184900     1.007825032070
           H          3.986238427379   -10.610169701317    -1.098952419677     1.007825032070
           H          5.581511128855    -9.917816019395     0.613189626686     1.007825032070
           H          5.809264671043    -9.414757547589     2.765629178103     1.007825032070
           H          4.594045778438    -9.225722752555     4.873406016469     1.007825032070
           H          2.589740792956    -9.458295772848     5.787419546487     1.007825032070
           H          0.257105248211   -10.032098430502     5.354271637802     1.007825032070
           H         -1.354322325271   -10.627682673009     3.867414186603     1.007825032070
           H         -0.342772504127   -11.381776380750    -0.526707542707     1.007825032070
           H          1.852422195798   -11.130519153902    -1.527534220562     1.007825032070

  Running in c1 symmetry.

  Rotational constants: A =      0.00067  B =      0.00018  C =      0.00018 [cm^-1]
  Rotational constants: A =     20.18508  B =      5.52878  C =      5.51123 [MHz]
  Nuclear repulsion = 42336.709861931711202

  Charge       = 0
  Multiplicity = 1
  Electrons    = 1048
  Nalpha       = 524
  Nbeta        = 524

  ==> Algorithm <==

  SCF Algorithm Type is DF.
  DIIS enabled.
  MOM disabled.
  Fractional occupation disabled.
  Guess Type is SAD.
  Energy threshold   = 1.00e-08
  Density threshold  = 1.00e-08
  Integral threshold = 0.00e+00

  ==> Primary Basis <==

  Basis Set: 6-31G(D)
    Blend: 6-31G(D)
    Number of shells: 1070
    Number of basis function: 2609
    Number of Cartesian functions: 2609
    Spherical Harmonics?: false
    Max angular momentum: 2

  ==> DFT Potential <==

   => PBE Composite Functional <= 

    PBE GGA Exchange-Correlation Functional

    J.P. Perdew et. al., Phys. Rev. Lett., 77(18), 3865-3868, 1996

    Points   =           5000
    Deriv    =              1
    GGA      =           TRUE
    Meta     =          FALSE

    X_LRC        =          FALSE
    X_Hybrid     =          FALSE
    X_Alpha      =   0.000000E+00
    X_Omega      =   0.000000E+00
    C_LRC        =          FALSE
    C_Hybrid     =          FALSE
    C_Alpha      =   0.000000E+00
    C_Omega      =   0.000000E+00

   => Exchange Functionals <=

    1.0000   PBE_X

   => Correlation Functionals <=

    1.0000   PBE_C

   => Molecular Quadrature <=

    Radial Scheme    =       TREUTLER
    Pruning Scheme   =           FLAT
    Nuclear Scheme   =       TREUTLER

    BS radius alpha  =              1
    Pruning alpha    =              1
    Radial Points    =             75
    Spherical Points =            302
    Total Points     =        4284561
    Total Blocks     =           3091
    Max Points       =           4999
    Max Functions    =            961

   => Loading Basis Set <=

    Name: (6-31G(D) AUX)
    Role: JKFIT
    Keyword: DF_BASIS_SCF
    atoms 1-171   entry C          line   120 file /usr/local/Dist/psi4conda/share/psi4/basis/cc-pvdz-jkfit.gbs 
    atoms 172-193 entry H          line    50 file /usr/local/Dist/psi4conda/share/psi4/basis/cc-pvdz-jkfit.gbs 

  ==> Pre-Iterations <==

   -------------------------------------------------------
    Irrep   Nso     Nmo     Nalpha   Nbeta   Ndocc  Nsocc
   -------------------------------------------------------
     A       2609    2609       0       0       0       0
   -------------------------------------------------------
    Total    2609    2609     524     524     524       0
   -------------------------------------------------------

  ==> Integral Setup <==

  ==> DFJK: Density-Fitted J/K Matrices <==

    J tasked:                  Yes
    K tasked:                   No
    wK tasked:                  No
    OpenMP threads:             10
    Integrals threads:          10
    Memory (MB):             14305
    Algorithm:                Disk
    Integral Cache:           NONE
    Schwarz Cutoff:          1E-12
    Fitting Condition:       1E-12

   => Auxiliary Basis Set <=

  Basis Set: (6-31G(D) AUX)
    Blend: CC-PVDZ-JKFIT
    Number of shells: 4302
    Number of basis function: 14401
    Number of Cartesian functions: 14401
    Spherical Harmonics?: false
    Max angular momentum: 3

  Minimum eigenvalue in the overlap matrix is 6.8799416434E-05.
  Using Symmetric Orthogonalization.

  SCF Guess: Superposition of Atomic Densities via on-the-fly atomic UHF.

  ==> Iterations <==

                           Total Energy        Delta E     RMS |[F,P]|

   @DF-RKS iter   0: -6557.05722359676201   -6.55706e+03   2.53059e-02 
   @DF-RKS iter   1: -6519.98046345487819    3.70768e+01   2.42237e-03 
   @DF-RKS iter   2: -6515.87295294478372    4.10751e+00   3.74393e-03 DIIS
   @DF-RKS iter   3: -6496.98140082871760    1.88916e+01   6.40020e-03 DIIS
   @DF-RKS iter   4: -6521.14525646965649   -2.41639e+01   1.46903e-03 DIIS
   @DF-RKS iter   5: -6513.88009124120435    7.26517e+00   3.50538e-03 DIIS
   @DF-RKS iter   6: -6522.09332768479271   -8.21324e+00   7.34885e-04 DIIS
   @DF-RKS iter   7: -6521.49216109104145    6.01167e-01   1.07988e-03 DIIS
   @DF-RKS iter   8: -6522.36071677022301   -8.68556e-01   1.74005e-04 DIIS
   @DF-RKS iter   9: -6522.33803232960508    2.26844e-02   2.52590e-04 DIIS
   @DF-RKS iter  10: -6522.37262672069483   -3.45944e-02   7.43750e-05 DIIS
   @DF-RKS iter  11: -6522.37539482714146   -2.76811e-03   2.20616e-05 DIIS
   @DF-RKS iter  12: -6522.37563576149569   -2.40934e-04   7.34385e-06 DIIS
   @DF-RKS iter  13: -6522.37563357912313    2.18237e-06   7.26159e-06 DIIS
   @DF-RKS iter  14: -6522.37566150363273   -2.79245e-05   2.09539e-06 DIIS
   @DF-RKS iter  15: -6522.37566348050950   -1.97688e-06   9.46138e-07 DIIS
   @DF-RKS iter  16: -6522.37566378707470   -3.06565e-07   4.68374e-07 DIIS
   @DF-RKS iter  17: -6522.37566387419793   -8.71232e-08   1.89373e-07 DIIS
   @DF-RKS iter  18: -6522.37566389238054   -1.81826e-08   7.32014e-08 DIIS
   @DF-RKS iter  19: -6522.37566389150743    8.73115e-10   8.68429e-08 DIIS
   @DF-RKS iter  20: -6522.37566389212407   -6.16637e-10   7.63780e-08 DIIS
   @DF-RKS iter  21: -6522.37566389541553   -3.29146e-09   2.95078e-08 DIIS
   @DF-RKS iter  22: -6522.37566389521362    2.01908e-10   2.60515e-08 DIIS
   @DF-RKS iter  23: -6522.37566389579297   -5.79348e-10   4.48667e-09 DIIS

  ==> Post-Iterations <==

    Orbital Energies (a.u.)
    -----------------------

    Doubly Occupied:                                                      

       1A     -9.931924     2A     -9.931902     3A     -9.931880  
       4A     -9.931867     5A     -9.931831     6A     -9.931830  
       7A     -9.931770     8A     -9.931766     9A     -9.931761  
      10A     -9.931729    11A     -9.931711    12A     -9.931702  
      13A     -9.931692    14A     -9.931684    15A     -9.931663  
      16A     -9.931637    17A     -9.931629    18A     -9.931619  
      19A     -9.931605    20A     -9.931591    21A     -9.931577  
      22A     -9.931568    23A     -9.931551    24A     -9.931535  
      25A     -9.931505    26A     -9.931471    27A     -9.931470  
      28A     -9.931438    29A     -9.931433    30A     -9.931425  
      31A     -9.931420    32A     -9.931418    33A     -9.931397  
      34A     -9.931392    35A     -9.931386    36A     -9.931377  
      37A     -9.931371    38A     -9.931356    39A     -9.931336  
      40A     -9.931329    41A     -9.931322    42A     -9.931317  
      43A     -9.931290    44A     -9.931284    45A     -9.931263  
      46A     -9.931257    47A     -9.931245    48A     -9.931238  
      49A     -9.931228    50A     -9.931215    51A     -9.931212  
      52A     -9.931199    53A     -9.931182    54A     -9.931175  
      55A     -9.931163    56A     -9.931150    57A     -9.931133  
      58A     -9.931124    59A     -9.931107    60A     -9.931096  
      61A     -9.931066    62A     -9.931049    63A     -9.931033  
      64A     -9.931011    65A     -9.930999    66A     -9.930989  
      67A     -9.930985    68A     -9.930976    69A     -9.930961  
      70A     -9.930949    71A     -9.930884    72A     -9.930729  
      73A     -9.930719    74A     -9.930715    75A     -9.930698  
      76A     -9.930698    77A     -9.930686    78A     -9.930678  
      79A     -9.930673    80A     -9.930594    81A     -9.930557  
      82A     -9.930498    83A     -9.930483    84A     -9.930479  
      85A     -9.930477    86A     -9.930464    87A     -9.930455  
      88A     -9.930441    89A     -9.930437    90A     -9.930336  
      91A     -9.930299    92A     -9.930116    93A     -9.930114  
      94A     -9.930109    95A     -9.930106    96A     -9.930096  
      97A     -9.930095    98A     -9.930077    99A     -9.929999  
     100A     -9.929891   101A     -9.929886   102A     -9.929885  
     103A     -9.929880   104A     -9.929873   105A     -9.929870  
     106A     -9.929859   107A     -9.929835   108A     -9.929821  
     109A     -9.929815   110A     -9.929809   111A     -9.929804  
     112A     -9.929779   113A     -9.929772   114A     -9.929770  
     115A     -9.929675   116A     -9.929632   117A     -9.929589  
     118A     -9.929562   119A     -9.929548   120A     -9.929545  
     121A     -9.929536   122A     -9.929534   123A     -9.929503  
     124A     -9.929495   125A     -9.929386   126A     -9.929342  
     127A     -9.929154   128A     -9.929145   129A     -9.929139  
     130A     -9.929135   131A     -9.929135   132A     -9.929127  
     133A     -9.929115   134A     -9.929114   135A     -9.929090  
     136A     -9.929078   137A     -9.928986   138A     -9.928965  
     139A     -9.928909   140A     -9.928906   141A     -9.928905  
     142A     -9.928902   143A     -9.928887   144A     -9.928884  
     145A     -9.928850   146A     -9.928697   147A     -9.928692  
     148A     -9.928562   149A     -9.928490   150A     -9.928294  
     151A     -9.926779   152A     -9.919956   153A     -9.919953  
     154A     -9.919950   155A     -9.919948   156A     -9.919948  
     157A     -9.919940   158A     -9.919939   159A     -9.919591  
     160A     -9.919523   161A     -9.919517   162A     -9.919513  
     163A     -9.919512   164A     -9.919511   165A     -9.919502  
     166A     -9.919501   167A     -9.919152   168A     -9.918460  
     169A     -9.917676   170A     -9.915037   171A     -9.911959  
     172A     -0.859012   173A     -0.852023   174A     -0.849423  
     175A     -0.849389   176A     -0.842482   177A     -0.842422  
     178A     -0.841023   179A     -0.831590   180A     -0.831502  
     181A     -0.826277   182A     -0.821237   183A     -0.821217  
     184A     -0.817006   185A     -0.816875   186A     -0.814412  
     187A     -0.814365   188A     -0.808217   189A     -0.803843  
     190A     -0.803741   191A     -0.799156   192A     -0.798926  
     193A     -0.789813   194A     -0.789583   195A     -0.786044  
     196A     -0.777352   197A     -0.776851   198A     -0.776236  
     199A     -0.776224   200A     -0.772773   201A     -0.772374  
     202A     -0.769680   203A     -0.769640   204A     -0.760946  
     205A     -0.759133   206A     -0.759044   207A     -0.753414  
     208A     -0.751927   209A     -0.751875   210A     -0.751778  
     211A     -0.744017   212A     -0.743938   213A     -0.733724  
     214A     -0.731606   215A     -0.731235   216A     -0.725804  
     217A     -0.724115   218A     -0.723019   219A     -0.722744  
     220A     -0.717033   221A     -0.717005   222A     -0.711113  
     223A     -0.710211   224A     -0.710105   225A     -0.709081  
     226A     -0.703886   227A     -0.701810   228A     -0.701588  
     229A     -0.698378   230A     -0.697001   231A     -0.694632  
     232A     -0.692884   233A     -0.688701   234A     -0.688127  
     235A     -0.687076   236A     -0.685875   237A     -0.677143  
     238A     -0.672742   239A     -0.672044   240A     -0.671854  
     241A     -0.670705   242A     -0.668024   243A     -0.667006  
     244A     -0.665531   245A     -0.664122   246A     -0.663241  
     247A     -0.657174   248A     -0.654151   249A     -0.653394  
     250A     -0.649454   251A     -0.647760   252A     -0.644949  
     253A     -0.640686   254A     -0.636671   255A     -0.630166  
     256A     -0.620817   257A     -0.617260   258A     -0.612094  
     259A     -0.611227   260A     -0.610431   261A     -0.608826  
     262A     -0.608160   263A     -0.606159   264A     -0.603526  
     265A     -0.600523   266A     -0.598898   267A     -0.596996  
     268A     -0.595261   269A     -0.593538   270A     -0.589677  
     271A     -0.589142   272A     -0.582820   273A     -0.581589  
     274A     -0.578448   275A     -0.578081   276A     -0.577745  
     277A     -0.577018   278A     -0.572173   279A     -0.561566  
     280A     -0.560727   281A     -0.553967   282A     -0.553859  
     283A     -0.552145   284A     -0.551757   285A     -0.550836  
     286A     -0.549158   287A     -0.548984   288A     -0.548940  
     289A     -0.547091   290A     -0.544474   291A     -0.543470  
     292A     -0.543452   293A     -0.542281   294A     -0.541820  
     295A     -0.540974   296A     -0.528696   297A     -0.527538  
     298A     -0.523325   299A     -0.515669   300A     -0.514064  
     301A     -0.513976   302A     -0.512401   303A     -0.508931  
     304A     -0.507059   305A     -0.498560   306A     -0.497367  
     307A     -0.496196   308A     -0.492769   309A     -0.489721  
     310A     -0.482877   311A     -0.482377   312A     -0.481738  
     313A     -0.480792   314A     -0.477169   315A     -0.477134  
     316A     -0.474953   317A     -0.473499   318A     -0.473074  
     319A     -0.472997   320A     -0.470645   321A     -0.467121  
     322A     -0.467105   323A     -0.465177   324A     -0.465137  
     325A     -0.464570   326A     -0.463994   327A     -0.460662  
     328A     -0.459985   329A     -0.459628   330A     -0.459118  
     331A     -0.456990   332A     -0.455673   333A     -0.445884  
     334A     -0.443331   335A     -0.442380   336A     -0.438894  
     337A     -0.438619   338A     -0.437577   339A     -0.436161  
     340A     -0.430393   341A     -0.427070   342A     -0.423462  
     343A     -0.423288   344A     -0.421172   345A     -0.420339  
     346A     -0.420069   347A     -0.419701   348A     -0.419019  
     349A     -0.416221   350A     -0.415652   351A     -0.414050  
     352A     -0.413547   353A     -0.412512   354A     -0.412341  
     355A     -0.412072   356A     -0.411550   357A     -0.410933  
     358A     -0.410733   359A     -0.410702   360A     -0.408978  
     361A     -0.404238   362A     -0.403518   363A     -0.403112  
     364A     -0.402713   365A     -0.402433   366A     -0.402097  
     367A     -0.399461   368A     -0.398649   369A     -0.397789  
     370A     -0.397678   371A     -0.397133   372A     -0.396718  
     373A     -0.396655   374A     -0.395948   375A     -0.394393  
     376A     -0.393162   377A     -0.391538   378A     -0.390971  
     379A     -0.389609   380A     -0.389199   381A     -0.388798  
     382A     -0.388028   383A     -0.387859   384A     -0.386919  
     385A     -0.385935   386A     -0.385353   387A     -0.383200  
     388A     -0.382528   389A     -0.381080   390A     -0.379080  
     391A     -0.378499   392A     -0.375028   393A     -0.373797  
     394A     -0.373554   395A     -0.373002   396A     -0.371917  
     397A     -0.371246   398A     -0.371078   399A     -0.370571  
     400A     -0.369557   401A     -0.367684   402A     -0.366795  
     403A     -0.366221   404A     -0.366149   405A     -0.365516  
     406A     -0.364586   407A     -0.364139   408A     -0.363743  
     409A     -0.363405   410A     -0.363129   411A     -0.362488  
     412A     -0.359568   413A     -0.358954   414A     -0.358167  
     415A     -0.357697   416A     -0.356055   417A     -0.355115  
     418A     -0.353630   419A     -0.351797   420A     -0.350306  
     421A     -0.346705   422A     -0.344927   423A     -0.344884  
     424A     -0.344693   425A     -0.344298   426A     -0.343055  
     427A     -0.340412   428A     -0.331767   429A     -0.331441  
     430A     -0.329707   431A     -0.329418   432A     -0.328233  
     433A     -0.326491   434A     -0.322155   435A     -0.320594  
     436A     -0.320361   437A     -0.319912   438A     -0.319765  
     439A     -0.319408   440A     -0.318397   441A     -0.317687  
     442A     -0.317294   443A     -0.316167   444A     -0.315428  
     445A     -0.311155   446A     -0.311095   447A     -0.309139  
     448A     -0.308991   449A     -0.306825   450A     -0.306553  
     451A     -0.305220   452A     -0.305016   453A     -0.304560  
     454A     -0.303726   455A     -0.303642   456A     -0.302245  
     457A     -0.298944   458A     -0.298731   459A     -0.294510  
     460A     -0.293837   461A     -0.292737   462A     -0.292517  
     463A     -0.291844   464A     -0.290665   465A     -0.289850  
     466A     -0.288214   467A     -0.288007   468A     -0.287858  
     469A     -0.286932   470A     -0.283649   471A     -0.280944  
     472A     -0.280612   473A     -0.278384   474A     -0.278076  
     475A     -0.274640   476A     -0.271847   477A     -0.271689  
     478A     -0.268507   479A     -0.267588   480A     -0.266527  
     481A     -0.266474   482A     -0.266372   483A     -0.264137  
     484A     -0.261024   485A     -0.260474   486A     -0.258191  
     487A     -0.255038   488A     -0.247942   489A     -0.247885  
     490A     -0.244806   491A     -0.244359   492A     -0.242365  
     493A     -0.240969   494A     -0.240701   495A     -0.240420  
     496A     -0.240253   497A     -0.237300   498A     -0.236124  
     499A     -0.229329   500A     -0.229154   501A     -0.226958  
     502A     -0.226473   503A     -0.224197   504A     -0.223751  
     505A     -0.218343   506A     -0.217900   507A     -0.216824  
     508A     -0.216485   509A     -0.209483   510A     -0.209162  
     511A     -0.207982   512A     -0.205116   513A     -0.201974  
     514A     -0.201634   515A     -0.196945   516A     -0.191122  
     517A     -0.190889   518A     -0.189854   519A     -0.189543  
     520A     -0.184988   521A     -0.176489   522A     -0.169313  
     523A     -0.149673   524A     -0.146566  

    Virtual:                                                              

     525A     -0.123130   526A     -0.119022   527A     -0.099574  
     528A     -0.094906   529A     -0.088608   530A     -0.088506  
     531A     -0.086271   532A     -0.086073   533A     -0.086027  
     534A     -0.083384   535A     -0.083182   536A     -0.081031  
     537A     -0.080757   538A     -0.078368   539A     -0.075381  
     540A     -0.072991   541A     -0.072817   542A     -0.069880  
     543A     -0.069642   544A     -0.066593   545A     -0.066240  
     546A     -0.063666   547A     -0.060766   548A     -0.060157  
     549A     -0.053024   550A     -0.052686   551A     -0.047879  
     552A     -0.047665   553A     -0.042708   554A     -0.042537  
     555A     -0.039470   556A     -0.039175   557A     -0.035108  
     558A     -0.034432   559A     -0.030884   560A     -0.030701  
     561A     -0.030536   562A     -0.027135   563A     -0.027059  
     564A     -0.019171   565A     -0.018734   566A     -0.016041  
     567A     -0.015978   568A     -0.008215   569A     -0.007596  
     570A      0.002753   571A      0.007660   572A      0.008363  
     573A      0.008644   574A      0.008989   575A      0.017833  
     576A      0.018370   577A      0.027826   578A      0.028855  
     579A      0.030264   580A      0.031404   581A      0.034261  
     582A      0.040125   583A      0.040408   584A      0.043024  
     585A      0.044351   586A      0.044705   587A      0.045114  
     588A      0.047635   589A      0.047644   590A      0.053246  
     591A      0.053945   592A      0.054129   593A      0.058067  
     594A      0.060296   595A      0.063865   596A      0.064966  
     597A      0.065709   598A      0.067064   599A      0.074860  
     600A      0.075785   601A      0.077536   602A      0.081291  
     603A      0.082832   604A      0.083996   605A      0.084356  
     606A      0.084957   607A      0.086365   608A      0.088203  
     609A      0.089164   610A      0.089952   611A      0.090626  
     612A      0.091112   613A      0.091143   614A      0.091576  
     615A      0.092359   616A      0.093732   617A      0.093819  
     618A      0.093912   619A      0.094789   620A      0.117244  
     621A      0.128504   622A      0.135893   623A      0.137398  
     624A      0.138513   625A      0.139173   626A      0.140475  
     627A      0.141131   628A      0.143346   629A      0.144470  
     630A      0.144651   631A      0.145546   632A      0.149170  
     633A      0.156081   634A      0.157139   635A      0.158156  
     636A      0.160106   637A      0.161185   638A      0.162160  
     639A      0.162962   640A      0.163970   641A      0.166374  
     642A      0.166623   643A      0.168902   644A      0.169429  
     645A      0.173264   646A      0.175385   647A      0.177247  
     648A      0.177619   649A      0.178619   650A      0.179216  
     651A      0.181149   652A      0.181428   653A      0.182046  
     654A      0.182371   655A      0.184007   656A      0.184495  
     657A      0.185639   658A      0.188439   659A      0.190560  
     660A      0.192982   661A      0.194228   662A      0.194581  
     663A      0.195106   664A      0.195348   665A      0.195768  
     666A      0.195886   667A      0.196358   668A      0.197043  
     669A      0.198523   670A      0.200633   671A      0.201446  
     672A      0.202707   673A      0.204063   674A      0.204601  
     675A      0.204827   676A      0.205412   677A      0.205500  
     678A      0.206712   679A      0.208007   680A      0.208185  
     681A      0.213705   682A      0.214420   683A      0.214535  
     684A      0.216770   685A      0.217014   686A      0.217395  
     687A      0.219821   688A      0.221125   689A      0.227163  
     690A      0.227760   691A      0.228071   692A      0.228957  
     693A      0.233550   694A      0.234056   695A      0.234800  
     696A      0.236322   697A      0.238187   698A      0.242134  
     699A      0.242493   700A      0.243082   701A      0.246639  
     702A      0.249842   703A      0.250150   704A      0.252853  
     705A      0.254145   706A      0.255305   707A      0.257099  
     708A      0.257447   709A      0.258052   710A      0.263210  
     711A      0.266185   712A      0.267593   713A      0.275259  
     714A      0.275755   715A      0.276220   716A      0.278638  
     717A      0.279526   718A      0.280464   719A      0.281466  
     720A      0.281710   721A      0.282684   722A      0.285239  
     723A      0.286569   724A      0.286868   725A      0.287491  
     726A      0.288816   727A      0.290074   728A      0.290340  
     729A      0.291740   730A      0.294165   731A      0.296355  
     732A      0.297421   733A      0.300913   734A      0.303068  
     735A      0.303343   736A      0.304468   737A      0.316057  
     738A      0.319818   739A      0.320469   740A      0.321962  
     741A      0.322690   742A      0.328581   743A      0.329175  
     744A      0.329418   745A      0.330652   746A      0.331377  
     747A      0.334086   748A      0.335853   749A      0.336961  
     750A      0.337526   751A      0.342605   752A      0.346234  
     753A      0.347344   754A      0.351421   755A      0.358201  
     756A      0.359761   757A      0.360310   758A      0.363198  
     759A      0.365460   760A      0.365788   761A      0.366962  
     762A      0.372650   763A      0.374233   764A      0.380115  
     765A      0.381336   766A      0.381839   767A      0.383652  
     768A      0.384099   769A      0.385508   770A      0.386202  
     771A      0.386852   772A      0.387107   773A      0.391478  
     774A      0.393487   775A      0.393622   776A      0.397612  
     777A      0.398124   778A      0.399984   779A      0.400232  
     780A      0.404481   781A      0.405527   782A      0.405723  
     783A      0.406202   784A      0.406570   785A      0.407847  
     786A      0.407928   787A      0.408251   788A      0.408643  
     789A      0.411288   790A      0.412498   791A      0.413579  
     792A      0.414399   793A      0.417371   794A      0.417936  
     795A      0.418139   796A      0.420133   797A      0.421227  
     798A      0.423338   799A      0.423436   800A      0.425153  
     801A      0.427062   802A      0.428158   803A      0.429208  
     804A      0.434930   805A      0.435755   806A      0.439546  
     807A      0.442040   808A      0.443282   809A      0.443833  
     810A      0.444081   811A      0.444136   812A      0.444720  
     813A      0.445108   814A      0.446269   815A      0.447706  
     816A      0.448092   817A      0.448872   818A      0.449902  
     819A      0.450099   820A      0.451946   821A      0.453710  
     822A      0.454249   823A      0.456768   824A      0.456999  
     825A      0.459265   826A      0.460133   827A      0.463600  
     828A      0.463850   829A      0.464032   830A      0.464107  
     831A      0.464739   832A      0.465046   833A      0.465208  
     834A      0.466284   835A      0.468864   836A      0.471436  
     837A      0.471683   838A      0.472624   839A      0.472752  
     840A      0.473562   841A      0.473709   842A      0.474753  
     843A      0.476367   844A      0.476851   845A      0.476878  
     846A      0.477120   847A      0.477540   848A      0.477628  
     849A      0.478202   850A      0.480549   851A      0.481544  
     852A      0.481881   853A      0.482254   854A      0.482345  
     855A      0.482558   856A      0.482616   857A      0.483217  
     858A      0.483819   859A      0.484213   860A      0.484879  
     861A      0.485107   862A      0.485210   863A      0.485333  
     864A      0.486466   865A      0.488338   866A      0.490199  
     867A      0.490986   868A      0.491174   869A      0.491367  
     870A      0.491511   871A      0.491884   872A      0.491937  
     873A      0.492128   874A      0.492887   875A      0.493896  
     876A      0.494146   877A      0.494399   878A      0.494894  
     879A      0.495215   880A      0.495935   881A      0.497016  
     882A      0.497821   883A      0.499251   884A      0.499979  
     885A      0.500195   886A      0.501110   887A      0.502253  
     888A      0.502476   889A      0.502527   890A      0.502853  
     891A      0.502992   892A      0.503609   893A      0.503714  
     894A      0.505518   895A      0.505692   896A      0.506358  
     897A      0.506795   898A      0.507692   899A      0.508797  
     900A      0.509070   901A      0.509960   902A      0.510267  
     903A      0.510766   904A      0.512731   905A      0.513687  
     906A      0.513769   907A      0.513837   908A      0.515324  
     909A      0.515648   910A      0.515829   911A      0.516535  
     912A      0.516838   913A      0.518096   914A      0.518446  
     915A      0.519335   916A      0.519671   917A      0.519947  
     918A      0.520962   919A      0.521194   920A      0.522387  
     921A      0.522910   922A      0.523345   923A      0.524822  
     924A      0.524983   925A      0.525639   926A      0.526833  
     927A      0.527351   928A      0.527607   929A      0.528819  
     930A      0.529458   931A      0.529718   932A      0.530585  
     933A      0.531155   934A      0.531602   935A      0.532144  
     936A      0.532839   937A      0.533432   938A      0.533748  
     939A      0.534003   940A      0.534631   941A      0.535709  
     942A      0.535913   943A      0.536127   944A      0.537317  
     945A      0.537894   946A      0.538285   947A      0.538653  
     948A      0.540148   949A      0.540631   950A      0.540815  
     951A      0.540863   952A      0.541115   953A      0.541770  
     954A      0.544633   955A      0.545299   956A      0.546415  
     957A      0.547372   958A      0.547794   959A      0.547980  
     960A      0.548671   961A      0.549430   962A      0.550699  
     963A      0.550792   964A      0.552107   965A      0.552430  
     966A      0.553454   967A      0.553735   968A      0.554373  
     969A      0.554723   970A      0.555057   971A      0.556164  
     972A      0.556524   973A      0.556874   974A      0.557331  
     975A      0.557711   976A      0.560355   977A      0.560896  
     978A      0.561258   979A      0.561753   980A      0.563578  
     981A      0.564344   982A      0.564651   983A      0.565184  
     984A      0.565541   985A      0.565885   986A      0.566262  
     987A      0.567303   988A      0.569835   989A      0.570453  
     990A      0.572150   991A      0.574477   992A      0.575100  
     993A      0.575542   994A      0.576097   995A      0.576635  
     996A      0.577921   997A      0.578958   998A      0.581050  
     999A      0.585286  1000A      0.587123  1001A      0.587821  
    1002A      0.592174  1003A      0.593385  1004A      0.596223  
    1005A      0.597091  1006A      0.599199  1007A      0.600467  
    1008A      0.601851  1009A      0.603153  1010A      0.604491  
    1011A      0.604962  1012A      0.605256  1013A      0.605555  
    1014A      0.607711  1015A      0.608738  1016A      0.615036  
    1017A      0.616050  1018A      0.616525  1019A      0.616735  
    1020A      0.616911  1021A      0.617068  1022A      0.619361  
    1023A      0.619703  1024A      0.625866  1025A      0.626273  
    1026A      0.627050  1027A      0.627252  1028A      0.627651  
    1029A      0.627764  1030A      0.628534  1031A      0.630327  
    1032A      0.630568  1033A      0.630675  1034A      0.632216  
    1035A      0.632388  1036A      0.632468  1037A      0.633040  
    1038A      0.633239  1039A      0.633245  1040A      0.634006  
    1041A      0.635855  1042A      0.635998  1043A      0.636281  
    1044A      0.636832  1045A      0.637499  1046A      0.637611  
    1047A      0.640139  1048A      0.640232  1049A      0.641806  
    1050A      0.642072  1051A      0.642920  1052A      0.644256  
    1053A      0.644693  1054A      0.645844  1055A      0.646682  
    1056A      0.648041  1057A      0.654225  1058A      0.655575  
    1059A      0.656961  1060A      0.658407  1061A      0.658830  
    1062A      0.659010  1063A      0.662751  1064A      0.672281  
    1065A      0.674741  1066A      0.677472  1067A      0.678658  
    1068A      0.680042  1069A      0.682590  1070A      0.683833  
    1071A      0.684210  1072A      0.686010  1073A      0.688267  
    1074A      0.689251  1075A      0.690414  1076A      0.693585  
    1077A      0.693633  1078A      0.696240  1079A      0.698183  
    1080A      0.698241  1081A      0.698502  1082A      0.699621  
    1083A      0.701139  1084A      0.701615  1085A      0.701813  
    1086A      0.701987  1087A      0.702934  1088A      0.703300  
    1089A      0.703931  1090A      0.704426  1091A      0.705894  
    1092A      0.707749  1093A      0.708472  1094A      0.709164  
    1095A      0.709515  1096A      0.710564  1097A      0.711916  
    1098A      0.712586  1099A      0.713401  1100A      0.714291  
    1101A      0.716774  1102A      0.717261  1103A      0.717952  
    1104A      0.719493  1105A      0.720147  1106A      0.721305  
    1107A      0.722918  1108A      0.726114  1109A      0.728385  
    1110A      0.728985  1111A      0.730281  1112A      0.731814  
    1113A      0.732154  1114A      0.732702  1115A      0.733511  
    1116A      0.735273  1117A      0.736741  1118A      0.737979  
    1119A      0.740481  1120A      0.742736  1121A      0.743107  
    1122A      0.745302  1123A      0.746898  1124A      0.747085  
    1125A      0.747523  1126A      0.751536  1127A      0.752829  
    1128A      0.753193  1129A      0.754236  1130A      0.756480  
    1131A      0.761657  1132A      0.761967  1133A      0.762464  
    1134A      0.763025  1135A      0.764916  1136A      0.766534  
    1137A      0.768388  1138A      0.769680  1139A      0.772823  
    1140A      0.776640  1141A      0.777218  1142A      0.777872  
    1143A      0.779460  1144A      0.780940  1145A      0.791658  
    1146A      0.794464  1147A      0.796025  1148A      0.797528  
    1149A      0.798014  1150A      0.798571  1151A      0.799277  
    1152A      0.799434  1153A      0.799851  1154A      0.801172  
    1155A      0.802645  1156A      0.802880  1157A      0.804267  
    1158A      0.805306  1159A      0.805595  1160A      0.805757  
    1161A      0.806456  1162A      0.808499  1163A      0.808698  
    1164A      0.809441  1165A      0.810361  1166A      0.811048  
    1167A      0.811533  1168A      0.811692  1169A      0.812105  
    1170A      0.812622  1171A      0.814207  1172A      0.816438  
    1173A      0.819518  1174A      0.824300  1175A      0.824677  
    1176A      0.825590  1177A      0.826542  1178A      0.826830  
    1179A      0.827188  1180A      0.827676  1181A      0.828014  
    1182A      0.828314  1183A      0.829419  1184A      0.830429  
    1185A      0.831057  1186A      0.831706  1187A      0.833177  
    1188A      0.833420  1189A      0.835840  1190A      0.836963  
    1191A      0.841432  1192A      0.842221  1193A      0.843728  
    1194A      0.845181  1195A      0.847466  1196A      0.848647  
    1197A      0.849861  1198A      0.857544  1199A      0.859796  
    1200A      0.861406  1201A      0.861756  1202A      0.862429  
    1203A      0.863090  1204A      0.866086  1205A      0.867214  
    1206A      0.867951  1207A      0.870720  1208A      0.875865  
    1209A      0.877688  1210A      0.879908  1211A      0.881100  
    1212A      0.883367  1213A      0.884515  1214A      0.888021  
    1215A      0.889862  1216A      0.891384  1217A      0.894914  
    1218A      0.901395  1219A      0.902671  1220A      0.903596  
    1221A      0.907853  1222A      0.914137  1223A      0.915115  
    1224A      0.919052  1225A      0.921787  1226A      0.922511  
    1227A      0.923420  1228A      0.924002  1229A      0.924678  
    1230A      0.925048  1231A      0.925894  1232A      0.926397  
    1233A      0.926856  1234A      0.928053  1235A      0.929880  
    1236A      0.931716  1237A      0.931783  1238A      0.932482  
    1239A      0.932554  1240A      0.933115  1241A      0.933964  
    1242A      0.938312  1243A      0.939649  1244A      0.941375  
    1245A      0.943689  1246A      0.946436  1247A      0.948794  
    1248A      0.950042  1249A      0.950657  1250A      0.952452  
    1251A      0.953453  1252A      0.954861  1253A      0.954943  
    1254A      0.959503  1255A      0.960726  1256A      0.962579  
    1257A      0.965585  1258A      0.965810  1259A      0.966979  
    1260A      0.968230  1261A      0.969323  1262A      0.969627  
    1263A      0.970589  1264A      0.973786  1265A      0.976306  
    1266A      0.981401  1267A      0.982591  1268A      0.985674  
    1269A      0.986260  1270A      0.987350  1271A      0.987796  
    1272A      0.988204  1273A      0.992522  1274A      0.997891  
    1275A      0.998819  1276A      0.999400  1277A      1.000536  
    1278A      1.001076  1279A      1.002490  1280A      1.003422  
    1281A      1.006168  1282A      1.006602  1283A      1.007751  
    1284A      1.008685  1285A      1.009923  1286A      1.015251  
    1287A      1.016869  1288A      1.018318  1289A      1.020505  
    1290A      1.021674  1291A      1.024369  1292A      1.025467  
    1293A      1.028401  1294A      1.031384  1295A      1.032584  
    1296A      1.034597  1297A      1.034791  1298A      1.035524  
    1299A      1.035840  1300A      1.036231  1301A      1.037564  
    1302A      1.039221  1303A      1.041194  1304A      1.046202  
    1305A      1.046692  1306A      1.049947  1307A      1.050501  
    1308A      1.052734  1309A      1.052995  1310A      1.053286  
    1311A      1.053787  1312A      1.056623  1313A      1.058011  
    1314A      1.058590  1315A      1.060138  1316A      1.060840  
    1317A      1.061687  1318A      1.064535  1319A      1.066000  
    1320A      1.066480  1321A      1.067952  1322A      1.070655  
    1323A      1.073530  1324A      1.073665  1325A      1.074254  
    1326A      1.074475  1327A      1.074817  1328A      1.075204  
    1329A      1.077134  1330A      1.078062  1331A      1.079400  
    1332A      1.081596  1333A      1.085044  1334A      1.088899  
    1335A      1.089663  1336A      1.091016  1337A      1.092755  
    1338A      1.093232  1339A      1.094643  1340A      1.098162  
    1341A      1.099189  1342A      1.100797  1343A      1.101995  
    1344A      1.102404  1345A      1.103475  1346A      1.109980  
    1347A      1.111694  1348A      1.112848  1349A      1.116510  
    1350A      1.117610  1351A      1.118781  1352A      1.119635  
    1353A      1.121811  1354A      1.122598  1355A      1.122731  
    1356A      1.123415  1357A      1.125217  1358A      1.127658  
    1359A      1.128329  1360A      1.129363  1361A      1.130580  
    1362A      1.132913  1363A      1.133814  1364A      1.133970  
    1365A      1.137001  1366A      1.141272  1367A      1.142109  
    1368A      1.142434  1369A      1.143440  1370A      1.147688  
    1371A      1.148651  1372A      1.150054  1373A      1.153464  
    1374A      1.154688  1375A      1.154981  1376A      1.156565  
    1377A      1.157598  1378A      1.159410  1379A      1.162215  
    1380A      1.162575  1381A      1.162961  1382A      1.163529  
    1383A      1.164042  1384A      1.165220  1385A      1.166176  
    1386A      1.166450  1387A      1.168724  1388A      1.171888  
    1389A      1.175075  1390A      1.176198  1391A      1.179144  
    1392A      1.181186  1393A      1.181629  1394A      1.184127  
    1395A      1.185401  1396A      1.187483  1397A      1.188977  
    1398A      1.190141  1399A      1.190956  1400A      1.191273  
    1401A      1.193442  1402A      1.195187  1403A      1.197479  
    1404A      1.202821  1405A      1.203908  1406A      1.207987  
    1407A      1.208322  1408A      1.211507  1409A      1.212359  
    1410A      1.213242  1411A      1.215281  1412A      1.216467  
    1413A      1.216591  1414A      1.217324  1415A      1.218400  
    1416A      1.218572  1417A      1.219134  1418A      1.220021  
    1419A      1.220689  1420A      1.220985  1421A      1.223807  
    1422A      1.224877  1423A      1.225199  1424A      1.228781  
    1425A      1.230578  1426A      1.231746  1427A      1.231885  
    1428A      1.232546  1429A      1.233711  1430A      1.234214  
    1431A      1.234678  1432A      1.234737  1433A      1.235842  
    1434A      1.236404  1435A      1.236980  1436A      1.237133  
    1437A      1.237809  1438A      1.239728  1439A      1.248061  
    1440A      1.252628  1441A      1.252929  1442A      1.253842  
    1443A      1.254573  1444A      1.256187  1445A      1.259110  
    1446A      1.259817  1447A      1.263063  1448A      1.264347  
    1449A      1.265398  1450A      1.265688  1451A      1.267273  
    1452A      1.267819  1453A      1.270796  1454A      1.271404  
    1455A      1.273307  1456A      1.277128  1457A      1.277909  
    1458A      1.279871  1459A      1.282078  1460A      1.284628  
    1461A      1.286636  1462A      1.293774  1463A      1.295689  
    1464A      1.298056  1465A      1.299565  1466A      1.300503  
    1467A      1.301306  1468A      1.302070  1469A      1.303551  
    1470A      1.305093  1471A      1.307430  1472A      1.310230  
    1473A      1.313950  1474A      1.314447  1475A      1.315177  
    1476A      1.316937  1477A      1.322585  1478A      1.323221  
    1479A      1.325078  1480A      1.326017  1481A      1.330930  
    1482A      1.331997  1483A      1.332526  1484A      1.334290  
    1485A      1.335293  1486A      1.343112  1487A      1.343950  
    1488A      1.346535  1489A      1.346937  1490A      1.348319  
    1491A      1.350983  1492A      1.354049  1493A      1.357243  
    1494A      1.361478  1495A      1.364094  1496A      1.367063  
    1497A      1.367964  1498A      1.372134  1499A      1.377763  
    1500A      1.378622  1501A      1.381551  1502A      1.382802  
    1503A      1.385861  1504A      1.386770  1505A      1.386948  
    1506A      1.389235  1507A      1.390301  1508A      1.393374  
    1509A      1.399483  1510A      1.400294  1511A      1.402919  
    1512A      1.405800  1513A      1.407005  1514A      1.409741  
    1515A      1.410425  1516A      1.410874  1517A      1.411304  
    1518A      1.413319  1519A      1.413570  1520A      1.414287  
    1521A      1.416228  1522A      1.416441  1523A      1.416644  
    1524A      1.417619  1525A      1.418216  1526A      1.419039  
    1527A      1.419344  1528A      1.419810  1529A      1.420672  
    1530A      1.424567  1531A      1.425146  1532A      1.429055  
    1533A      1.431157  1534A      1.432030  1535A      1.432277  
    1536A      1.432915  1537A      1.433321  1538A      1.433944  
    1539A      1.434978  1540A      1.435693  1541A      1.436487  
    1542A      1.436865  1543A      1.438086  1544A      1.438192  
    1545A      1.439263  1546A      1.439754  1547A      1.441164  
    1548A      1.443356  1549A      1.444699  1550A      1.446019  
    1551A      1.447420  1552A      1.447547  1553A      1.448073  
    1554A      1.448674  1555A      1.448915  1556A      1.450278  
    1557A      1.451736  1558A      1.454242  1559A      1.455539  
    1560A      1.456814  1561A      1.459484  1562A      1.461125  
    1563A      1.464412  1564A      1.464839  1565A      1.468600  
    1566A      1.469975  1567A      1.470653  1568A      1.471359  
    1569A      1.474922  1570A      1.477781  1571A      1.478146  
    1572A      1.479564  1573A      1.481020  1574A      1.481682  
    1575A      1.482480  1576A      1.483516  1577A      1.483662  
    1578A      1.485826  1579A      1.486019  1580A      1.488427  
    1581A      1.489593  1582A      1.490043  1583A      1.493798  
    1584A      1.493883  1585A      1.501711  1586A      1.503366  
    1587A      1.503909  1588A      1.504556  1589A      1.504864  
    1590A      1.505858  1591A      1.506518  1592A      1.508715  
    1593A      1.513028  1594A      1.514035  1595A      1.514895  
    1596A      1.516374  1597A      1.517957  1598A      1.519133  
    1599A      1.521128  1600A      1.522036  1601A      1.524604  
    1602A      1.525532  1603A      1.527409  1604A      1.528448  
    1605A      1.530433  1606A      1.533310  1607A      1.534591  
    1608A      1.536190  1609A      1.536259  1610A      1.538481  
    1611A      1.542738  1612A      1.543067  1613A      1.546829  
    1614A      1.548904  1615A      1.552744  1616A      1.554179  
    1617A      1.554666  1618A      1.555773  1619A      1.558595  
    1620A      1.559685  1621A      1.559828  1622A      1.560473  
    1623A      1.563625  1624A      1.564620  1625A      1.567230  
    1626A      1.569176  1627A      1.572148  1628A      1.573318  
    1629A      1.574201  1630A      1.578540  1631A      1.579670  
    1632A      1.580787  1633A      1.581765  1634A      1.581987  
    1635A      1.582397  1636A      1.583586  1637A      1.586099  
    1638A      1.587002  1639A      1.589006  1640A      1.590267  
    1641A      1.592183  1642A      1.594273  1643A      1.595159  
    1644A      1.600978  1645A      1.601260  1646A      1.602663  
    1647A      1.603828  1648A      1.606608  1649A      1.607213  
    1650A      1.610360  1651A      1.611337  1652A      1.613002  
    1653A      1.613743  1654A      1.622149  1655A      1.624067  
    1656A      1.629423  1657A      1.630038  1658A      1.630311  
    1659A      1.634175  1660A      1.635083  1661A      1.635993  
    1662A      1.636224  1663A      1.636994  1664A      1.637182  
    1665A      1.637541  1666A      1.637871  1667A      1.638275  
    1668A      1.642514  1669A      1.643030  1670A      1.643239  
    1671A      1.643822  1672A      1.645082  1673A      1.648467  
    1674A      1.649541  1675A      1.650270  1676A      1.655281  
    1677A      1.655903  1678A      1.657298  1679A      1.657934  
    1680A      1.661551  1681A      1.663425  1682A      1.664806  
    1683A      1.664917  1684A      1.666121  1685A      1.666808  
    1686A      1.669797  1687A      1.672597  1688A      1.676790  
    1689A      1.676868  1690A      1.676891  1691A      1.677208  
    1692A      1.677905  1693A      1.679231  1694A      1.679332  
    1695A      1.680356  1696A      1.681098  1697A      1.682156  
    1698A      1.683585  1699A      1.685907  1700A      1.689291  
    1701A      1.689629  1702A      1.691766  1703A      1.692379  
    1704A      1.692641  1705A      1.693407  1706A      1.694295  
    1707A      1.697277  1708A      1.699513  1709A      1.700062  
    1710A      1.701109  1711A      1.703351  1712A      1.704058  
    1713A      1.704887  1714A      1.706471  1715A      1.706833  
    1716A      1.708738  1717A      1.711058  1718A      1.711670  
    1719A      1.712881  1720A      1.713548  1721A      1.716770  
    1722A      1.716844  1723A      1.717352  1724A      1.719384  
    1725A      1.719594  1726A      1.722194  1727A      1.723470  
    1728A      1.723980  1729A      1.724058  1730A      1.724198  
    1731A      1.725628  1732A      1.728972  1733A      1.729237  
    1734A      1.730016  1735A      1.731937  1736A      1.732255  
    1737A      1.734970  1738A      1.736373  1739A      1.738836  
    1740A      1.739158  1741A      1.739458  1742A      1.743716  
    1743A      1.746660  1744A      1.747847  1745A      1.749552  
    1746A      1.752513  1747A      1.755017  1748A      1.757801  
    1749A      1.758352  1750A      1.759990  1751A      1.761047  
    1752A      1.762853  1753A      1.763046  1754A      1.764764  
    1755A      1.765396  1756A      1.765677  1757A      1.766310  
    1758A      1.766529  1759A      1.766952  1760A      1.767418  
    1761A      1.769220  1762A      1.770496  1763A      1.770737  
    1764A      1.772888  1765A      1.775794  1766A      1.776227  
    1767A      1.777863  1768A      1.779143  1769A      1.780850  
    1770A      1.781640  1771A      1.782134  1772A      1.782703  
    1773A      1.785724  1774A      1.790464  1775A      1.793073  
    1776A      1.794568  1777A      1.794679  1778A      1.795778  
    1779A      1.797192  1780A      1.798970  1781A      1.799542  
    1782A      1.801315  1783A      1.804123  1784A      1.805930  
    1785A      1.806492  1786A      1.807829  1787A      1.807889  
    1788A      1.808483  1789A      1.809346  1790A      1.810135  
    1791A      1.811014  1792A      1.811172  1793A      1.812297  
    1794A      1.813083  1795A      1.813211  1796A      1.813661  
    1797A      1.815561  1798A      1.817376  1799A      1.817869  
    1800A      1.818109  1801A      1.820811  1802A      1.825601  
    1803A      1.827546  1804A      1.828312  1805A      1.833346  
[...]
	    C     1.1643904709   0.8955947608  -3.3917146518
	    C     2.0229603558  -0.0928898270  -2.8143037819
	    C     2.9585972520   0.3157571358  -1.7998225517
	    C     3.4831151994  -0.6766514911  -0.9123610578
	    C     3.6198223263  -0.3555003753   0.4771438984
	    C     3.2263871116   0.9455035698   0.9244748973
	    C     2.5126879010   1.0588567539   2.1692911901
	    C     2.2267711966  -0.1346464095   2.9055061681
	    C     0.9401319434  -0.2733448572   3.5201274274
	    C    -0.0096121905   0.7873545029   3.3744938378
	    C    -1.3868506340   0.4492066745   3.1283084637
	    C    -1.7466747649  -0.9329932251   3.0396958312
	    C    -2.6781298265  -1.3384955982   2.0295156613
	    C    -3.2129755264  -0.3467026420   1.1477116909
	    C    -3.3506767618  -0.6694472605  -0.2482856951
	    C    -2.9477398109  -1.9683117474  -0.6941307825
	    C    -2.2371176684  -2.0817195716  -1.9329544738
	    C    -1.9575855677  -0.8916174513  -2.6770779849
	    C    -0.6646306632  -0.7529714205  -3.2941921092
	    C     0.2858497261  -1.8110390708  -3.1359142200
	    C     1.6566876782  -1.4742255598  -2.8910730868
	    C     2.5150527926  -2.4670577771  -2.3052705388
	    C     3.4459434774  -2.0607533457  -1.2978252721
	    C     3.9834136388  -3.0532350019  -0.4152735809
	    C     4.1210504206  -2.7306384736   0.9804093568
	    C     3.7142952420  -1.4311358266   1.4258822152
	    C     3.0043901020  -1.3189305069   2.6628964906
	    C     2.7265347675  -2.5108427909   3.4083330816
	    C     1.4339234879  -2.6506198693   4.0250318115
	    C     0.4821556663  -1.5909423838   3.8672749223
	    C    -0.8868086649  -1.9268464798   3.6221910540
	    C    -1.2534443336  -3.3095640937   3.5445131613
	    C    -2.1894751706  -3.7158257119   2.5298630546
	    C    -2.7138257043  -2.7219172166   1.6420380967
	    C    -2.8518987491  -3.0437466305   0.2547006947
	    C    -2.4614084593  -4.3476972963  -0.1936030250
	    C    -1.7472107864  -4.4614647140  -1.4376240712
	    C    -1.4584542078  -3.2659633011  -2.1730675312
	    C    -0.1725262072  -3.1275105025  -2.7849488875
	    C     0.7777996414  -4.1892771791  -2.6370236437
	    C     2.1547015858  -3.8511247858  -2.3920319639
	    C     3.0065763963  -4.8365764732  -1.8050533213
	    C     3.9408918138  -4.4293377604  -0.7969820001
	    C     4.4618351788  -5.4276504262   0.0945135789
	    C     4.5985077864  -5.1083850376   1.4754212087
	    C     4.2094862159  -3.8004604316   1.9233720901
	    C     3.4971336535  -3.6887399554   3.1623776652
	    C     3.2068870767  -4.8910536290   3.8929013002
	    C     1.9269312706  -5.0305744634   4.5012423169
	    C     0.9768789698  -3.9618140986   4.3632637809
	    C    -0.3949055838  -4.2978819204   4.1178563387
	    C    -0.7502365142  -5.6858336425   4.0221118882
	    C    -1.6764529860  -6.0857633963   3.0172402612
	    C    -2.2207678353  -5.0895513816   2.1403235519
	    C    -2.3599587422  -5.4143733940   0.7518086198
	    C    -1.9495129466  -6.7189124065   0.3092312850
	    C    -1.2418176073  -6.8300784179  -0.9198875309
	    C    -0.9675266295  -5.6360212265  -1.6707664910
	    C     0.3214427662  -5.4957993242  -2.2805915752
	    C     1.2730810639  -6.5565035597  -2.1091844290
	    C     2.6367693602  -6.2225755036  -1.8713243216
	    C     3.4962198551  -7.2206881466  -1.2992975720
	    C     4.4369358336  -6.8117250244  -0.2876087651
	    C     5.0041539610  -7.7973589246   0.5758423502
	    C     5.1453265764  -7.4717869664   1.9804580987
	    C     4.7059671233  -6.1858415666   2.4188086665
	    C     3.9883898629  -6.0741193552   3.6637541947
	    C     3.7333775290  -7.2527557545   4.4282537266
	    C     2.4286788389  -7.3976953712   5.0412739358
	    C     1.4774338177  -6.3493020471   4.8525412251
	    C     0.0990944129  -6.6869869567   4.6036731790
	    C    -0.2843219357  -8.0621830029   4.5486676192
	    C    -1.2365074850  -8.4636326047   3.5360011867
	    C    -1.7233017199  -7.4682181121   2.6404113573
	    C    -1.8647915996  -7.8030895260   1.2472755778
	    C    -1.5317017057  -9.1215880444   0.7979605640
	    C    -0.7938395790  -9.2279002425  -0.4486072440
	    C    -0.4742555175  -8.0200366832  -1.1510779792
	    C     0.8214432051  -7.8758174378  -1.7652723043
	    C     1.7672608623  -8.9395321848  -1.6615713808
	    C     3.1534543667  -8.6014557234  -1.4156633006
	    C     4.0864251424  -9.5453605502  -0.8662213571
	    C     4.9878155293  -9.1537833432   0.1024432376
	    C     5.2818004808  -8.4832755699   2.9916019535
	    C     4.5943974475  -8.3765598887   4.1830919459
	    C     1.9088105702  -8.6780855245   5.4344840047
	    C     0.5895939419  -9.0023243797   5.1919153452
	    C    -1.4383070283  -9.8227017807   3.1280747508
	    C    -1.6094192911 -10.1743371140   1.7986152546
	    C    -0.0166893432 -10.3828682211  -0.8174844211
	    C     1.2280280153 -10.2416310335  -1.3968225134
	    H    -0.8128365992 -12.1638298761   1.3438004436
	    H    -2.3360979172 -12.1503350666   2.2514762361
	    H    -2.3417625463 -11.7742892062   0.5108955844
	    H    -0.3200234709  10.1446241111  -5.4838317842
	    H     1.2651791930  10.8368107034  -3.7628190198
	    H     1.4741164674  11.3345457758  -1.6076333906
	    H     0.2642047275  11.5271769311   0.5024381706
	    H    -1.7302851920  11.3132471769   1.4583646001
	    H    -4.0653816076  10.7399289353   1.0428482315
	    H    -5.5082224293  10.1100121612  -0.5252041620
	    H    -5.7388090088   9.5639055379  -2.8920946901
	    H    -4.6377617649   9.3880255788  -4.8139105371
	    H    -2.4468978773   9.6227508844  -5.8621797492
	    H     3.9877639623 -10.6098759010  -1.0999711072
	    H     5.5828083956  -9.9174284596   0.6126283407
	    H     5.8102216283  -9.4144884570   2.7654999885
	    H     4.5947235632  -9.2256740451   4.8733668757
	    H     2.5901516089  -9.4588876135   5.7858482512
	    H     0.2573416618 -10.0326609159   5.3525611841
	    H    -1.3573558776 -10.6273991902   3.8683549062
	    H    -0.3412127284 -11.3816794237  -0.5253279369
	    H     1.8537946598 -11.1302784120  -1.5257599210
	Saving final (previous) structure.
			--------------------------
			 OPTKING Finished Execution 
			--------------------------

    Final optimized geometry and variables:
    Molecular point group: c1
    Full point group: C1

    Geometry (in Angstrom), charge = 0, multiplicity = 1:

    C           -1.779781542169   -11.637375333296     1.448956049671
    C            0.153311914968     9.379758569370    -4.860601326394
    C            1.049705700694     9.771181234493    -3.887305508630
    C            1.540315789171     8.823148115943    -2.925870792330
    C            1.677242559136     9.147772599732    -1.520481330054
    C            1.331380883863    10.439213169003    -0.994860948042
    C            0.647187846381    10.548176270026     0.198523487441
    C            0.270848563929     9.371625323836     0.931920387294
    C           -1.029896229180     9.232046390036     1.554530748523
    C           -2.029707246383    10.260935349675     1.479973598385
    C           -3.350207615983     9.936726936665     1.245030359626
    C           -3.743242136265     8.565850196491     1.071609363949
    C           -4.684374442630     8.155046122363     0.049583596498
    C           -5.287113394962     9.091308149459    -0.858114682471
    C           -5.417454972447     8.782479956632    -2.196687237297
    C           -4.952738830183     7.520277717421    -2.701237701066
    C           -4.234368771791     7.405760087970    -3.954250215968
    C           -3.938945441753     8.546788339801    -4.775608503658
    C           -2.699995406361     8.679538547459    -5.368441086127
    C           -1.688391535235     7.678443322462    -5.172579949540
    C           -0.301872493153     8.018700531090    -4.925795223208
    C            0.530965439352     7.036287369355    -4.309311721341
    C            1.467090300347     7.445159780898    -3.292761747579
    C            1.987609384924     6.441885961925    -2.406688569919
    C            2.122453890987     6.760945593988    -1.025459261730
    C            1.731499371009     8.070713195888    -0.584590050969
    C            1.016862766279     8.184480062878     0.661726478767
    C            0.734688831557     6.981847141856     1.394388336847
    C           -0.543747053976     6.844619677435     2.006244658563
    C           -1.489699472095     7.915503913784     1.861284382254
    C           -2.868845468363     7.576872002500     1.615795746999
    C           -3.221039120804     6.187224918144     1.529386945403
    C           -4.146049989723     5.783487226482     0.524937512545
    C           -4.682627817808     6.785193214311    -0.353327349474
    C           -4.819019596831     6.462620120451    -1.751308178151
    C           -4.411365733347     5.157007641401    -2.189349074728
    C           -3.705260103525     5.044487686663    -3.420791516808
    C           -3.434351929179     6.242115141261    -4.165764953438
    C           -2.140444494156     6.380647697785    -4.785052952886
    C           -1.192944810324     5.313588209874    -4.622765626954
    C            0.169731868055     5.648046571399    -4.380070325027
    C            1.033540596296     4.653177769359    -3.808357896165
    C            1.964731606815     5.059943115392    -2.797243957937
    C            2.499206617816     4.070001709461    -1.916457955443
    C            2.635799742989     4.392492991440    -0.520698753086
    C            2.230861153090     5.688613659193    -0.076210422171
    C            1.520072926475     5.801774274453     1.163528858059
    C            1.243041142462     4.614201709295     1.908244309490
    C           -0.049040033133     4.475373663534     2.526272159267
    C           -0.998579619716     5.531319398931     2.368473717642
    C           -2.370368885672     5.194467325645     2.124066195032
    C           -2.736314622951     3.815464251088     2.047223694435
    C           -3.671250185273     3.407541280056     1.032240181686
    C           -4.193066172394     4.399069598183     0.145641574020
    C           -4.328998292263     4.078132184150    -1.244899740498
    C           -3.938109517202     2.778638926919    -1.692130427778
    C           -3.224609224401     2.664862392273    -2.936623173527
    C           -2.937768955536     3.856529296505    -3.670895511594
    C           -1.650598752106     3.994357830201    -4.286641990446
    C           -0.702662283941     2.935010336727    -4.142520227408
    C            0.674386386808     3.273052935561    -3.897087753038
    C            1.527500225628     2.283870206415    -3.308251230413
    C            2.456976432412     2.689916715056    -2.299353178884
    C            2.989570819407     1.692786351952    -1.411765606877
    C            3.125927195522     2.013909874073    -0.022220870311
    C            2.724061991101     3.319489792201     0.424717014255
    C            2.014776995565     3.432356485288     1.662033038983
    C            1.733367892587     2.235361080812     2.406474199953
    C            0.446818827697     2.096915651048     3.021394903982
    C           -0.506970444538     3.161267273750     2.867716833365
    C           -1.875945777909     2.825104247628     2.623533583248
    C           -2.240113321341     1.437073541556     2.541805982161
    C           -3.171173981668     1.031128394182     1.531397841705
    C           -3.701085801998     2.028962950849     0.642975000282
    C           -3.837168703165     1.708547581789    -0.744693879367
    C           -3.439039852835     0.402047982391    -1.192555147444
    C           -2.728625434609     0.288686990063    -2.431553389796
    C           -2.444404738475     1.486581388795    -3.173386530554
    C           -1.159665191939     1.624179860395    -3.787522200127
    C           -0.206546411686     0.558906066989    -3.636377066905
    C            1.164390470883     0.895594760803    -3.391714651827
    C            2.022960355763    -0.092889827023    -2.814303781913
    C            2.958597252003     0.315757135840    -1.799822551678
    C            3.483115199399    -0.676651491134    -0.912361057817
    C            3.619822326349    -0.355500375272     0.477143898410
    C            3.226387111582     0.945503569783     0.924474897348
    C            2.512687901020     1.058856753861     2.169291190100
    C            2.226771196570    -0.134646409492     2.905506168064
    C            0.940131943400    -0.273344857204     3.520127427401
    C           -0.009612190543     0.787354502857     3.374493837753
    C           -1.386850633954     0.449206674545     3.128308463700
    C           -1.746674764916    -0.932993225058     3.039695831201
    C           -2.678129826458    -1.338495598238     2.029515661276
    C           -3.212975526361    -0.346702641959     1.147711690942
    C           -3.350676761819    -0.669447260537    -0.248285695144
    C           -2.947739810885    -1.968311747381    -0.694130782538
    C           -2.237117668426    -2.081719571622    -1.932954473835
    C           -1.957585567679    -0.891617451305    -2.677077984887
    C           -0.664630663203    -0.752971420459    -3.294192109189
    C            0.285849726098    -1.811039070827    -3.135914220007
    C            1.656687678213    -1.474225559796    -2.891073086759
    C            2.515052792635    -2.467057777106    -2.305270538795
    C            3.445943477395    -2.060753345716    -1.297825272077
    C            3.983413638772    -3.053235001926    -0.415273580870
    C            4.121050420624    -2.730638473638     0.980409356809
    C            3.714295241969    -1.431135826604     1.425882215214
    C            3.004390101994    -1.318930506926     2.662896490557
    C            2.726534767518    -2.510842790931     3.408333081637
    C            1.433923487926    -2.650619869295     4.025031811528
    C            0.482155666289    -1.590942383811     3.867274922262
    C           -0.886808664941    -1.926846479790     3.622191053981
    C           -1.253444333618    -3.309564093695     3.544513161284
    C           -2.189475170563    -3.715825711882     2.529863054650
    C           -2.713825704270    -2.721917216596     1.642038096730
    C           -2.851898749080    -3.043746630489     0.254700694727
    C           -2.461408459345    -4.347697296264    -0.193603024973
    C           -1.747210786368    -4.461464713990    -1.437624071208
    C           -1.458454207772    -3.265963301086    -2.173067531239
    C           -0.172526207185    -3.127510502506    -2.784948887466
    C            0.777799641431    -4.189277179077    -2.637023643741
    C            2.154701585754    -3.851124785849    -2.392031963878
    C            3.006576396297    -4.836576473151    -1.805053321277
    C            3.940891813837    -4.429337760385    -0.796982000077
    C            4.461835178836    -5.427650426166     0.094513578883
    C            4.598507786366    -5.108385037630     1.475421208657
    C            4.209486215948    -3.800460431594     1.923372090069
    C            3.497133653526    -3.688739955409     3.162377665169
    C            3.206887076720    -4.891053629034     3.892901300212
    C            1.926931270572    -5.030574463363     4.501242316945
    C            0.976878969827    -3.961814098643     4.363263780859
    C           -0.394905583803    -4.297881920352     4.117856338676
    C           -0.750236514250    -5.685833642515     4.022111888152
    C           -1.676452985969    -6.085763396271     3.017240261211
    C           -2.220767835302    -5.089551381627     2.140323551920
    C           -2.359958742203    -5.414373394006     0.751808619780
    C           -1.949512946637    -6.718912406464     0.309231285048
    C           -1.241817607253    -6.830078417933    -0.919887530901
    C           -0.967526629546    -5.636021226549    -1.670766491050
    C            0.321442766221    -5.495799324176    -2.280591575151
    C            1.273081063881    -6.556503559700    -2.109184429034
    C            2.636769360174    -6.222575503572    -1.871324321551
    C            3.496219855122    -7.220688146559    -1.299297571952
    C            4.436935833624    -6.811725024371    -0.287608765118
    C            5.004153961049    -7.797358924574     0.575842350166
    C            5.145326576410    -7.471786966396     1.980458098653
    C            4.705967123269    -6.185841566619     2.418808666451
    C            3.988389862928    -6.074119355233     3.663754194717
    C            3.733377529043    -7.252755754488     4.428253726598
    C            2.428678838908    -7.397695371201     5.041273935764
    C            1.477433817661    -6.349302047114     4.852541225075
    C            0.099094412881    -6.686986956705     4.603673178966
    C           -0.284321935699    -8.062183002890     4.548667619220
    C           -1.236507485003    -8.463632604684     3.536001186720
    C           -1.723301719918    -7.468218112057     2.640411357349
    C           -1.864791599641    -7.803089525996     1.247275577844
    C           -1.531701705705    -9.121588044357     0.797960564038
    C           -0.793839579038    -9.227900242471    -0.448607243968
    C           -0.474255517481    -8.020036683173    -1.151077979177
    C            0.821443205129    -7.875817437822    -1.765272304348
    C            1.767260862344    -8.939532184802    -1.661571380810
    C            3.153454366653    -8.601455723361    -1.415663300560
    C            4.086425142415    -9.545360550246    -0.866221357051
    C            4.987815529276    -9.153783343168     0.102443237562
    C            5.281800480767    -8.483275569912     2.991601953546
    C            4.594397447461    -8.376559888679     4.183091945870
    C            1.908810570238    -8.678085524488     5.434484004737
    C            0.589593941941    -9.002324379688     5.191915345177
    C           -1.438307028336    -9.822701780705     3.128074750805
    C           -1.609419291105   -10.174337113971     1.798615254585
    C           -0.016689343176   -10.382868221134    -0.817484421103
    C            1.228028015267   -10.241631033476    -1.396822513395
    H           -0.812836599209   -12.163829876139     1.343800443581
    H           -2.336097917156   -12.150335066609     2.251476236067
    H           -2.341762546323   -11.774289206243     0.510895584359
    H           -0.320023470865    10.144624111147    -5.483831784198
    H            1.265179192957    10.836810703414    -3.762819019781
    H            1.474116467352    11.334545775755    -1.607633390576
    H            0.264204727533    11.527176931137     0.502438170607
    H           -1.730285192049    11.313247176863     1.458364600114
    H           -4.065381607595    10.739928935318     1.042848231495
    H           -5.508222429298    10.110012161219    -0.525204162049
    H           -5.738809008758     9.563905537883    -2.892094690052
    H           -4.637761764874     9.388025578806    -4.813910537128
    H           -2.446897877315     9.622750884383    -5.862179749238
    H            3.987763962284   -10.609875900991    -1.099971107156
    H            5.582808395584    -9.917428459552     0.612628340696
    H            5.810221628260    -9.414488457007     2.765499988498
    H            4.594723563226    -9.225674045121     4.873366875724
    H            2.590151608896    -9.458887613513     5.785848251196
    H            0.257341661844   -10.032660915940     5.352561184087
    H           -1.357355877625   -10.627399190237     3.868354906237
    H           -0.341212728418   -11.381679423731    -0.525327936857
    H            1.853794659790   -11.130278412022    -1.525759921041

	Cleaning optimization helper files.

*** Psi4 exiting successfully. Buy a developer a beer!
