
Host: node01.cluster

Timers On : Sat Dec 19 02:03:24 2020
Timers Off: Sat Dec 19 02:03:25 2020

Wall Time:        1.00 seconds


***********************************************************
