
    -----------------------------------------------------------------------
          Psi4: An Open-Source Ab Initio Electronic Structure Package
                               Psi4 1.1 release

                         Git: Rev {HEAD} add49b9 


    R. M. Parrish, L. A. Burns, D. G. A. Smith, A. C. Simmonett,
    A. E. DePrince III, E. G. Hohenstein, U. Bozkaya, A. Yu. Sokolov,
    R. Di Remigio, R. M. Richard, J. F. Gonthier, A. M. James,
    H. R. McAlexander, A. Kumar, M. Saitow, X. Wang, B. P. Pritchard,
    P. Verma, H. F. Schaefer III, K. Patkowski, R. A. King, E. F. Valeev,
    F. A. Evangelista, J. M. Turney, T. D. Crawford, and C. D. Sherrill,
    J. Chem. Theory Comput. in press (2017).
    (doi: 10.1021/acs.jctc.7b00174)

    -----------------------------------------------------------------------


    Psi4 started on: Wednesday, 11 November 2020 01:23PM

    Process ID: 191872
    PSIDATADIR: /usr/local/Dist/psi4conda/share/psi4
    Memory:     500.0 MiB
    Threads:    10
    
  ==> Input File <==

--------------------------------------------------------------------------
molecule{
0 1
C        4.1372694093      7.7443232653     30.4207873392
C        5.9511426949      4.4020895124      0.0000000000
C        5.6550311445      5.7918948764      0.0000000000
C        5.2999679690      6.4061992460      1.2311788071
C        4.2435015960      7.3565254021      1.2311788071
C        3.5951704040      7.6448071786      0.0000000000
C        2.1818834549      7.7926618354      0.0000000000
C        1.4879247259      7.6448071786      1.2311788071
C        0.2576447793      6.9337148827      1.2311788071
C       -0.2168728391      6.4061992460      0.0000000000
C       -0.7942206591      5.1077730853      0.0000000000
C       -0.8680475650      4.4020895124      1.2311788071
C       -0.5719360146      3.0122841483      1.2311788071
C       -0.2168728391      2.3979797787      0.0000000000
C        0.8395935340      1.4476536227      0.0000000000
C        1.4879247259      1.1593718461      1.2311788071
C        2.9012116751      1.0115171893      1.2311788071
C        3.5951704040      1.1593718461      0.0000000000
C        4.8254503506      1.8704641420      0.0000000000
C        5.2999679690      2.3979797787      1.2311788071
C        5.8773157891      3.6964059395      1.2311788071
C        5.9511426949      4.4020895124      2.4623576141
C        5.6550311445      5.7918948764      2.4623576141
C        5.2999679690      6.4061992460      3.6935364212
C        4.2435015960      7.3565254021      3.6935364212
C        3.5951704040      7.6448071786      2.4623576141
C        2.1818834549      7.7926618354      2.4623576141
C        1.4879247259      7.6448071786      3.6935364212
C        0.2576447793      6.9337148827      3.6935364212
C       -0.2168728391      6.4061992460      2.4623576141
C       -0.7942206591      5.1077730853      2.4623576141
C       -0.8680475650      4.4020895124      3.6935364212
C       -0.5719360146      3.0122841483      3.6935364212
C       -0.2168728391      2.3979797787      2.4623576141
C        0.8395935340      1.4476536227      2.4623576141
C        1.4879247259      1.1593718461      3.6935364212
C        2.9012116751      1.0115171893      3.6935364212
C        3.5951704040      1.1593718461      2.4623576141
C        4.8254503506      1.8704641420      2.4623576141
C        5.2999679690      2.3979797787      3.6935364212
C        5.8773157891      3.6964059395      3.6935364212
C        5.9511426949      4.4020895124      4.9247152283
C        5.6550311445      5.7918948764      4.9247152283
C        5.2999679690      6.4061992460      6.1558940353
C        4.2435015960      7.3565254021      6.1558940353
C        3.5951704040      7.6448071786      4.9247152283
C        2.1818834549      7.7926618354      4.9247152283
C        1.4879247259      7.6448071786      6.1558940353
C        0.2576447793      6.9337148827      6.1558940353
C       -0.2168728391      6.4061992460      4.9247152283
C       -0.7942206591      5.1077730853      4.9247152283
C       -0.8680475650      4.4020895124      6.1558940353
C       -0.5719360146      3.0122841483      6.1558940353
C       -0.2168728391      2.3979797787      4.9247152283
C        0.8395935340      1.4476536227      4.9247152283
C        1.4879247259      1.1593718461      6.1558940353
C        2.9012116751      1.0115171893      6.1558940353
C        3.5951704040      1.1593718461      4.9247152283
C        4.8254503506      1.8704641420      4.9247152283
C        5.2999679690      2.3979797787      6.1558940353
C        5.8773157891      3.6964059395      6.1558940353
C        5.9511426949      4.4020895124      7.3870728424
C        5.6550311445      5.7918948764      7.3870728424
C        5.2999679690      6.4061992460      8.6182516495
C        4.2435015960      7.3565254021      8.6182516495
C        3.5951704040      7.6448071786      7.3870728424
C        2.1818834549      7.7926618354      7.3870728424
C        1.4879247259      7.6448071786      8.6182516495
C        0.2576447793      6.9337148827      8.6182516495
C       -0.2168728391      6.4061992460      7.3870728424
C       -0.7942206591      5.1077730853      7.3870728424
C       -0.8680475650      4.4020895124      8.6182516495
C       -0.5719360146      3.0122841483      8.6182516495
C       -0.2168728391      2.3979797787      7.3870728424
C        0.8395935340      1.4476536227      7.3870728424
C        1.4879247259      1.1593718461      8.6182516495
C        2.9012116751      1.0115171893      8.6182516495
C        3.5951704040      1.1593718461      7.3870728424
C        4.8254503506      1.8704641420      7.3870728424
C        5.2999679690      2.3979797787      8.6182516495
C        5.8773157891      3.6964059395      8.6182516495
C        5.9511426949      4.4020895124      9.8494304565
C        5.6550311445      5.7918948764      9.8494304565
C        5.2999679690      6.4061992460     11.0806092636
C        4.2435015960      7.3565254021     11.0806092636
C        3.5951704040      7.6448071786      9.8494304565
C        2.1818834549      7.7926618354      9.8494304565
C        1.4879247259      7.6448071786     11.0806092636
C        0.2576447793      6.9337148827     11.0806092636
C       -0.2168728391      6.4061992460      9.8494304565
C       -0.7942206591      5.1077730853      9.8494304565
C       -0.8680475650      4.4020895124     11.0806092636
C       -0.5719360146      3.0122841483     11.0806092636
C       -0.2168728391      2.3979797787      9.8494304565
C        0.8395935340      1.4476536227      9.8494304565
C        1.4879247259      1.1593718461     11.0806092636
C        2.9012116751      1.0115171893     11.0806092636
C        3.5951704040      1.1593718461      9.8494304565
C        4.8254503506      1.8704641420      9.8494304565
C        5.2999679690      2.3979797787     11.0806092636
C        5.8773157891      3.6964059395     11.0806092636
C        5.9511426949      4.4020895124     12.3117880707
C        5.6550311445      5.7918948764     12.3117880707
C        5.2999679690      6.4061992460     13.5429668777
C        4.2435015960      7.3565254021     13.5429668777
C        3.5951704040      7.6448071786     12.3117880707
C        2.1818834549      7.7926618354     12.3117880707
C        1.4879247259      7.6448071786     13.5429668777
C        0.2576447793      6.9337148827     13.5429668777
C       -0.2168728391      6.4061992460     12.3117880707
C       -0.7942206591      5.1077730853     12.3117880707
C       -0.8680475650      4.4020895124     13.5429668777
C       -0.5719360146      3.0122841483     13.5429668777
C       -0.2168728391      2.3979797787     12.3117880707
C        0.8395935340      1.4476536227     12.3117880707
C        1.4879247259      1.1593718461     13.5429668777
C        2.9012116751      1.0115171893     13.5429668777
C        3.5951704040      1.1593718461     12.3117880707
C        4.8254503506      1.8704641420     12.3117880707
C        5.2999679690      2.3979797787     13.5429668777
C        5.8773157891      3.6964059395     13.5429668777
C        5.9511426949      4.4020895124     14.7741456848
C        5.6550311445      5.7918948764     14.7741456848
C        5.2999679690      6.4061992460     16.0053244918
C        4.2435015960      7.3565254021     16.0053244918
C        3.5951704040      7.6448071786     14.7741456848
C        2.1818834549      7.7926618354     14.7741456848
C        1.4879247259      7.6448071786     16.0053244918
C        0.2576447793      6.9337148827     16.0053244918
C       -0.2168728391      6.4061992460     14.7741456848
C       -0.7942206591      5.1077730853     14.7741456848
C       -0.8680475650      4.4020895124     16.0053244918
C       -0.5719360146      3.0122841483     16.0053244918
C       -0.2168728391      2.3979797787     14.7741456848
C        0.8395935340      1.4476536227     14.7741456848
C        1.4879247259      1.1593718461     16.0053244918
C        2.9012116751      1.0115171893     16.0053244918
C        3.5951704040      1.1593718461     14.7741456848
C        4.8254503506      1.8704641420     14.7741456848
C        5.2999679690      2.3979797787     16.0053244918
C        5.8773157891      3.6964059395     16.0053244918
C        5.9511426949      4.4020895124     17.2365032989
C        5.6550311445      5.7918948764     17.2365032989
C        5.2999679690      6.4061992460     18.4676821060
C        4.2435015960      7.3565254021     18.4676821060
C        3.5951704040      7.6448071786     17.2365032989
C        2.1818834549      7.7926618354     17.2365032989
C        1.4879247259      7.6448071786     18.4676821060
C        0.2576447793      6.9337148827     18.4676821060
C       -0.2168728391      6.4061992460     17.2365032989
C       -0.7942206591      5.1077730853     17.2365032989
C       -0.8680475650      4.4020895124     18.4676821060
C       -0.5719360146      3.0122841483     18.4676821060
C       -0.2168728391      2.3979797787     17.2365032989
C        0.8395935340      1.4476536227     17.2365032989
C        1.4879247259      1.1593718461     18.4676821060
C        2.9012116751      1.0115171893     18.4676821060
C        3.5951704040      1.1593718461     17.2365032989
C        4.8254503506      1.8704641420     17.2365032989
C        5.2999679690      2.3979797787     18.4676821060
C        5.8773157891      3.6964059395     18.4676821060
C        5.9511426949      4.4020895124     19.6988609130
C        5.6550311445      5.7918948764     19.6988609130
C        5.2999679690      6.4061992460     20.9300397201
C        4.2435015960      7.3565254021     20.9300397201
C        3.5951704040      7.6448071786     19.6988609130
C        2.1818834549      7.7926618354     19.6988609130
C        1.4879247259      7.6448071786     20.9300397201
C        0.2576447793      6.9337148827     20.9300397201
C       -0.2168728391      6.4061992460     19.6988609130
C       -0.7942206591      5.1077730853     19.6988609130
C       -0.8680475650      4.4020895124     20.9300397201
C       -0.5719360146      3.0122841483     20.9300397201
C       -0.2168728391      2.3979797787     19.6988609130
C        0.8395935340      1.4476536227     19.6988609130
C        1.4879247259      1.1593718461     20.9300397201
C        2.9012116751      1.0115171893     20.9300397201
C        3.5951704040      1.1593718461     19.6988609130
C        4.8254503506      1.8704641420     19.6988609130
C        5.2999679690      2.3979797787     20.9300397201
C        5.8773157891      3.6964059395     20.9300397201
C        5.9511426949      4.4020895124     22.1612185272
C        5.6550311445      5.7918948764     22.1612185272
C        5.2999679690      6.4061992460     23.3923973342
C        4.2435015960      7.3565254021     23.3923973342
C        3.5951704040      7.6448071786     22.1612185272
C        2.1818834549      7.7926618354     22.1612185272
C        1.4879247259      7.6448071786     23.3923973342
C        0.2576447793      6.9337148827     23.3923973342
C       -0.2168728391      6.4061992460     22.1612185272
C       -0.7942206591      5.1077730853     22.1612185272
C       -0.8680475650      4.4020895124     23.3923973342
C       -0.5719360146      3.0122841483     23.3923973342
C       -0.2168728391      2.3979797787     22.1612185272
C        0.8395935340      1.4476536227     22.1612185272
C        1.4879247259      1.1593718461     23.3923973342
C        2.9012116751      1.0115171893     23.3923973342
C        3.5951704040      1.1593718461     22.1612185272
C        4.8254503506      1.8704641420     22.1612185272
C        5.2999679690      2.3979797787     23.3923973342
C        5.8773157891      3.6964059395     23.3923973342
C        5.9511426949      4.4020895124     24.6235761413
C        5.6550311445      5.7918948764     24.6235761413
C        5.2999679690      6.4061992460     25.8547549484
C        4.2435015960      7.3565254021     25.8547549484
C        3.5951704040      7.6448071786     24.6235761413
C        2.1818834549      7.7926618354     24.6235761413
C        1.4879247259      7.6448071786     25.8547549484
C        0.2576447793      6.9337148827     25.8547549484
C       -0.2168728391      6.4061992460     24.6235761413
C       -0.7942206591      5.1077730853     24.6235761413
C       -0.8680475650      4.4020895124     25.8547549484
C       -0.5719360146      3.0122841483     25.8547549484
C       -0.2168728391      2.3979797787     24.6235761413
C        0.8395935340      1.4476536227     24.6235761413
C        1.4879247259      1.1593718461     25.8547549484
C        2.9012116751      1.0115171893     25.8547549484
C        3.5951704040      1.1593718461     24.6235761413
C        4.8254503506      1.8704641420     24.6235761413
C        5.2999679690      2.3979797787     25.8547549484
C        5.8773157891      3.6964059395     25.8547549484
C        5.9511426949      4.4020895124     27.0859337554
C        5.6550311445      5.7918948764     27.0859337554
C        5.2999679690      6.4061992460     28.3171125625
C        4.2435015960      7.3565254021     28.3171125625
C        3.5951704040      7.6448071786     27.0859337554
C        2.1818834549      7.7926618354     27.0859337554
C        1.4879247259      7.6448071786     28.3171125625
C        0.2576447793      6.9337148827     28.3171125625
C       -0.2168728391      6.4061992460     27.0859337554
C       -0.7942206591      5.1077730853     27.0859337554
C       -0.8680475650      4.4020895124     28.3171125625
C       -0.5719360146      3.0122841483     28.3171125625
C       -0.2168728391      2.3979797787     27.0859337554
C        0.8395935340      1.4476536227     27.0859337554
C        1.4879247259      1.1593718461     28.3171125625
C        2.9012116751      1.0115171893     28.3171125625
C        3.5951704040      1.1593718461     27.0859337554
C        4.8254503506      1.8704641420     27.0859337554
C        5.2999679690      2.3979797787     28.3171125625
C        5.8773157891      3.6964059395     28.3171125625
C        5.9511426949      4.4020895124     29.5482913696
C        5.6550311445      5.7918948764     29.5482913696
C        3.5951704040      7.6448071786     29.5482913696
C        2.1818834549      7.7926618354     29.5482913696
C       -0.2168728391      6.4061992460     29.5482913696
C       -0.7942206591      5.1077730853     29.5482913696
C       -0.2168728391      2.3979797787     29.5482913696
C        0.8395935340      1.4476536227     29.5482913696
C        3.5951704040      1.1593718461     29.5482913696
C        4.8254503506      1.8704641420     29.5482913696
H        3.9880311695      8.7243041656     30.8236091148
H        3.8090420534      7.0134059147     31.1299605405
H        5.1767952911      7.5984383754     30.2134143902
H        6.2133059228      3.9172748830     -0.8724959696
H        5.6968082258      6.3414669449     -0.8724959696
H        4.1372694093      7.7443232653     -0.8724959696
H        1.6721191861      8.0022213096     -0.8724959696
H       -0.1440004566      6.9525181994     -0.8724959696
H       -1.1510493848      4.6877158945     -0.8724959696
H       -0.7139342351      2.6361073739     -0.8724959696
H        1.1288255222      0.9784845274     -0.8724959696
H        3.2150971843      0.7602238402     -0.8724959696
H        5.3610342756      2.0005588854     -0.8724959696
H        6.2133059228      3.9172748830     30.4207873392
H        5.6968082258      6.3414669449     30.4207873392
H        1.6721191861      8.0022213096     30.4207873392
H       -0.1440004566      6.9525181994     30.4207873392
H       -1.1510493848      4.6877158945     30.4207873392
H       -0.7139342351      2.6361073739     30.4207873392
H        1.1288255222      0.9784845274     30.4207873392
H        3.2150971843      0.7602238402     30.4207873392
H        5.3610342756      2.0005588854     30.4207873392
}
set basis 6-31G(d)
memory 16 GB
set reference rhf
optimize('pbe')
--------------------------------------------------------------------------

  Memory set to  14.901 GiB by Python driver.
gradient() will perform analytic gradient computation.

*** tstart() called on gpup02.cluster
*** at Wed Nov 11 13:23:06 2020

   => Loading Basis Set <=

    Name: 6-31G(D)
    Role: ORBITAL
    Keyword: BASIS
    atoms 1-251   entry C          line   102 file /usr/local/Dist/psi4conda/share/psi4/basis/6-31g_d_.gbs 
    atoms 252-273 entry H          line    35 file /usr/local/Dist/psi4conda/share/psi4/basis/6-31g_d_.gbs 


         ---------------------------------------------------------
                                   SCF
            by Justin Turney, Rob Parrish, and Andy Simmonett
                              RKS Reference
                       10 Threads,  15258 MiB Core
         ---------------------------------------------------------

  ==> Geometry <==

    Molecular point group: c1
    Full point group: C1

    Geometry (in Angstrom), charge = 0, multiplicity = 1:

       Center              X                  Y                   Z               Mass       
    ------------   -----------------  -----------------  -----------------  -----------------
           C          1.588164086813     3.326760812569    15.574065167686    12.000000000000
           C          3.402037372413    -0.015472940331   -14.846722171514    12.000000000000
           C          3.105925822013     1.374332423669   -14.846722171514    12.000000000000
           C          2.750862646513     1.988636793269   -13.615543364414    12.000000000000
           C          1.694396273513     2.938962949369   -13.615543364414    12.000000000000
           C          1.046065081513     3.227244725869   -14.846722171514    12.000000000000
           C         -0.367221867587     3.375099382669   -14.846722171514    12.000000000000
           C         -1.061180596587     3.227244725869   -13.615543364414    12.000000000000
           C         -2.291460543187     2.516152429969   -13.615543364414    12.000000000000
           C         -2.765978161587     1.988636793269   -14.846722171514    12.000000000000
           C         -3.343325981587     0.690210632569   -14.846722171514    12.000000000000
           C         -3.417152887487    -0.015472940331   -13.615543364414    12.000000000000
           C         -3.121041337087    -1.405278304431   -13.615543364414    12.000000000000
           C         -2.765978161587    -2.019582674031   -14.846722171514    12.000000000000
           C         -1.709511788487    -2.969908830031   -14.846722171514    12.000000000000
           C         -1.061180596587    -3.258190606631   -13.615543364414    12.000000000000
           C          0.352106352613    -3.406045263431   -13.615543364414    12.000000000000
           C          1.046065081513    -3.258190606631   -14.846722171514    12.000000000000
           C          2.276345028113    -2.547098310731   -14.846722171514    12.000000000000
           C          2.750862646513    -2.019582674031   -13.615543364414    12.000000000000
           C          3.328210466613    -0.721156513231   -13.615543364414    12.000000000000
           C          3.402037372413    -0.015472940331   -12.384364557414    12.000000000000
           C          3.105925822013     1.374332423669   -12.384364557414    12.000000000000
           C          2.750862646513     1.988636793269   -11.153185750314    12.000000000000
           C          1.694396273513     2.938962949369   -11.153185750314    12.000000000000
           C          1.046065081513     3.227244725869   -12.384364557414    12.000000000000
           C         -0.367221867587     3.375099382669   -12.384364557414    12.000000000000
           C         -1.061180596587     3.227244725869   -11.153185750314    12.000000000000
           C         -2.291460543187     2.516152429969   -11.153185750314    12.000000000000
           C         -2.765978161587     1.988636793269   -12.384364557414    12.000000000000
           C         -3.343325981587     0.690210632569   -12.384364557414    12.000000000000
           C         -3.417152887487    -0.015472940331   -11.153185750314    12.000000000000
           C         -3.121041337087    -1.405278304431   -11.153185750314    12.000000000000
           C         -2.765978161587    -2.019582674031   -12.384364557414    12.000000000000
           C         -1.709511788487    -2.969908830031   -12.384364557414    12.000000000000
           C         -1.061180596587    -3.258190606631   -11.153185750314    12.000000000000
           C          0.352106352613    -3.406045263431   -11.153185750314    12.000000000000
           C          1.046065081513    -3.258190606631   -12.384364557414    12.000000000000
           C          2.276345028113    -2.547098310731   -12.384364557414    12.000000000000
           C          2.750862646513    -2.019582674031   -11.153185750314    12.000000000000
           C          3.328210466613    -0.721156513231   -11.153185750314    12.000000000000
           C          3.402037372413    -0.015472940331    -9.922006943214    12.000000000000
           C          3.105925822013     1.374332423669    -9.922006943214    12.000000000000
           C          2.750862646513     1.988636793269    -8.690828136214    12.000000000000
           C          1.694396273513     2.938962949369    -8.690828136214    12.000000000000
           C          1.046065081513     3.227244725869    -9.922006943214    12.000000000000
           C         -0.367221867587     3.375099382669    -9.922006943214    12.000000000000
           C         -1.061180596587     3.227244725869    -8.690828136214    12.000000000000
           C         -2.291460543187     2.516152429969    -8.690828136214    12.000000000000
           C         -2.765978161587     1.988636793269    -9.922006943214    12.000000000000
           C         -3.343325981587     0.690210632569    -9.922006943214    12.000000000000
           C         -3.417152887487    -0.015472940331    -8.690828136214    12.000000000000
           C         -3.121041337087    -1.405278304431    -8.690828136214    12.000000000000
           C         -2.765978161587    -2.019582674031    -9.922006943214    12.000000000000
           C         -1.709511788487    -2.969908830031    -9.922006943214    12.000000000000
           C         -1.061180596587    -3.258190606631    -8.690828136214    12.000000000000
           C          0.352106352613    -3.406045263431    -8.690828136214    12.000000000000
           C          1.046065081513    -3.258190606631    -9.922006943214    12.000000000000
           C          2.276345028113    -2.547098310731    -9.922006943214    12.000000000000
           C          2.750862646513    -2.019582674031    -8.690828136214    12.000000000000
           C          3.328210466613    -0.721156513231    -8.690828136214    12.000000000000
           C          3.402037372413    -0.015472940331    -7.459649329114    12.000000000000
           C          3.105925822013     1.374332423669    -7.459649329114    12.000000000000
           C          2.750862646513     1.988636793269    -6.228470522014    12.000000000000
           C          1.694396273513     2.938962949369    -6.228470522014    12.000000000000
           C          1.046065081513     3.227244725869    -7.459649329114    12.000000000000
           C         -0.367221867587     3.375099382669    -7.459649329114    12.000000000000
           C         -1.061180596587     3.227244725869    -6.228470522014    12.000000000000
           C         -2.291460543187     2.516152429969    -6.228470522014    12.000000000000
           C         -2.765978161587     1.988636793269    -7.459649329114    12.000000000000
           C         -3.343325981587     0.690210632569    -7.459649329114    12.000000000000
           C         -3.417152887487    -0.015472940331    -6.228470522014    12.000000000000
           C         -3.121041337087    -1.405278304431    -6.228470522014    12.000000000000
           C         -2.765978161587    -2.019582674031    -7.459649329114    12.000000000000
           C         -1.709511788487    -2.969908830031    -7.459649329114    12.000000000000
           C         -1.061180596587    -3.258190606631    -6.228470522014    12.000000000000
           C          0.352106352613    -3.406045263431    -6.228470522014    12.000000000000
           C          1.046065081513    -3.258190606631    -7.459649329114    12.000000000000
           C          2.276345028113    -2.547098310731    -7.459649329114    12.000000000000
           C          2.750862646513    -2.019582674031    -6.228470522014    12.000000000000
           C          3.328210466613    -0.721156513231    -6.228470522014    12.000000000000
           C          3.402037372413    -0.015472940331    -4.997291715014    12.000000000000
           C          3.105925822013     1.374332423669    -4.997291715014    12.000000000000
           C          2.750862646513     1.988636793269    -3.766112907914    12.000000000000
           C          1.694396273513     2.938962949369    -3.766112907914    12.000000000000
           C          1.046065081513     3.227244725869    -4.997291715014    12.000000000000
           C         -0.367221867587     3.375099382669    -4.997291715014    12.000000000000
           C         -1.061180596587     3.227244725869    -3.766112907914    12.000000000000
           C         -2.291460543187     2.516152429969    -3.766112907914    12.000000000000
           C         -2.765978161587     1.988636793269    -4.997291715014    12.000000000000
           C         -3.343325981587     0.690210632569    -4.997291715014    12.000000000000
           C         -3.417152887487    -0.015472940331    -3.766112907914    12.000000000000
           C         -3.121041337087    -1.405278304431    -3.766112907914    12.000000000000
           C         -2.765978161587    -2.019582674031    -4.997291715014    12.000000000000
           C         -1.709511788487    -2.969908830031    -4.997291715014    12.000000000000
           C         -1.061180596587    -3.258190606631    -3.766112907914    12.000000000000
           C          0.352106352613    -3.406045263431    -3.766112907914    12.000000000000
           C          1.046065081513    -3.258190606631    -4.997291715014    12.000000000000
           C          2.276345028113    -2.547098310731    -4.997291715014    12.000000000000
           C          2.750862646513    -2.019582674031    -3.766112907914    12.000000000000
           C          3.328210466613    -0.721156513231    -3.766112907914    12.000000000000
           C          3.402037372413    -0.015472940331    -2.534934100814    12.000000000000
           C          3.105925822013     1.374332423669    -2.534934100814    12.000000000000
           C          2.750862646513     1.988636793269    -1.303755293814    12.000000000000
           C          1.694396273513     2.938962949369    -1.303755293814    12.000000000000
           C          1.046065081513     3.227244725869    -2.534934100814    12.000000000000
           C         -0.367221867587     3.375099382669    -2.534934100814    12.000000000000
           C         -1.061180596587     3.227244725869    -1.303755293814    12.000000000000
           C         -2.291460543187     2.516152429969    -1.303755293814    12.000000000000
           C         -2.765978161587     1.988636793269    -2.534934100814    12.000000000000
           C         -3.343325981587     0.690210632569    -2.534934100814    12.000000000000
           C         -3.417152887487    -0.015472940331    -1.303755293814    12.000000000000
           C         -3.121041337087    -1.405278304431    -1.303755293814    12.000000000000
           C         -2.765978161587    -2.019582674031    -2.534934100814    12.000000000000
           C         -1.709511788487    -2.969908830031    -2.534934100814    12.000000000000
           C         -1.061180596587    -3.258190606631    -1.303755293814    12.000000000000
           C          0.352106352613    -3.406045263431    -1.303755293814    12.000000000000
           C          1.046065081513    -3.258190606631    -2.534934100814    12.000000000000
           C          2.276345028113    -2.547098310731    -2.534934100814    12.000000000000
           C          2.750862646513    -2.019582674031    -1.303755293814    12.000000000000
           C          3.328210466613    -0.721156513231    -1.303755293814    12.000000000000
           C          3.402037372413    -0.015472940331    -0.072576486714    12.000000000000
           C          3.105925822013     1.374332423669    -0.072576486714    12.000000000000
           C          2.750862646513     1.988636793269     1.158602320286    12.000000000000
           C          1.694396273513     2.938962949369     1.158602320286    12.000000000000
           C          1.046065081513     3.227244725869    -0.072576486714    12.000000000000
           C         -0.367221867587     3.375099382669    -0.072576486714    12.000000000000
           C         -1.061180596587     3.227244725869     1.158602320286    12.000000000000
           C         -2.291460543187     2.516152429969     1.158602320286    12.000000000000
           C         -2.765978161587     1.988636793269    -0.072576486714    12.000000000000
           C         -3.343325981587     0.690210632569    -0.072576486714    12.000000000000
           C         -3.417152887487    -0.015472940331     1.158602320286    12.000000000000
           C         -3.121041337087    -1.405278304431     1.158602320286    12.000000000000
           C         -2.765978161587    -2.019582674031    -0.072576486714    12.000000000000
           C         -1.709511788487    -2.969908830031    -0.072576486714    12.000000000000
           C         -1.061180596587    -3.258190606631     1.158602320286    12.000000000000
           C          0.352106352613    -3.406045263431     1.158602320286    12.000000000000
           C          1.046065081513    -3.258190606631    -0.072576486714    12.000000000000
           C          2.276345028113    -2.547098310731    -0.072576486714    12.000000000000
           C          2.750862646513    -2.019582674031     1.158602320286    12.000000000000
           C          3.328210466613    -0.721156513231     1.158602320286    12.000000000000
           C          3.402037372413    -0.015472940331     2.389781127386    12.000000000000
           C          3.105925822013     1.374332423669     2.389781127386    12.000000000000
           C          2.750862646513     1.988636793269     3.620959934486    12.000000000000
           C          1.694396273513     2.938962949369     3.620959934486    12.000000000000
           C          1.046065081513     3.227244725869     2.389781127386    12.000000000000
           C         -0.367221867587     3.375099382669     2.389781127386    12.000000000000
           C         -1.061180596587     3.227244725869     3.620959934486    12.000000000000
           C         -2.291460543187     2.516152429969     3.620959934486    12.000000000000
           C         -2.765978161587     1.988636793269     2.389781127386    12.000000000000
           C         -3.343325981587     0.690210632569     2.389781127386    12.000000000000
           C         -3.417152887487    -0.015472940331     3.620959934486    12.000000000000
           C         -3.121041337087    -1.405278304431     3.620959934486    12.000000000000
           C         -2.765978161587    -2.019582674031     2.389781127386    12.000000000000
           C         -1.709511788487    -2.969908830031     2.389781127386    12.000000000000
           C         -1.061180596587    -3.258190606631     3.620959934486    12.000000000000
           C          0.352106352613    -3.406045263431     3.620959934486    12.000000000000
           C          1.046065081513    -3.258190606631     2.389781127386    12.000000000000
           C          2.276345028113    -2.547098310731     2.389781127386    12.000000000000
           C          2.750862646513    -2.019582674031     3.620959934486    12.000000000000
           C          3.328210466613    -0.721156513231     3.620959934486    12.000000000000
           C          3.402037372413    -0.015472940331     4.852138741486    12.000000000000
           C          3.105925822013     1.374332423669     4.852138741486    12.000000000000
           C          2.750862646513     1.988636793269     6.083317548586    12.000000000000
           C          1.694396273513     2.938962949369     6.083317548586    12.000000000000
           C          1.046065081513     3.227244725869     4.852138741486    12.000000000000
           C         -0.367221867587     3.375099382669     4.852138741486    12.000000000000
           C         -1.061180596587     3.227244725869     6.083317548586    12.000000000000
           C         -2.291460543187     2.516152429969     6.083317548586    12.000000000000
           C         -2.765978161587     1.988636793269     4.852138741486    12.000000000000
           C         -3.343325981587     0.690210632569     4.852138741486    12.000000000000
           C         -3.417152887487    -0.015472940331     6.083317548586    12.000000000000
           C         -3.121041337087    -1.405278304431     6.083317548586    12.000000000000
           C         -2.765978161587    -2.019582674031     4.852138741486    12.000000000000
           C         -1.709511788487    -2.969908830031     4.852138741486    12.000000000000
           C         -1.061180596587    -3.258190606631     6.083317548586    12.000000000000
           C          0.352106352613    -3.406045263431     6.083317548586    12.000000000000
           C          1.046065081513    -3.258190606631     4.852138741486    12.000000000000
           C          2.276345028113    -2.547098310731     4.852138741486    12.000000000000
           C          2.750862646513    -2.019582674031     6.083317548586    12.000000000000
           C          3.328210466613    -0.721156513231     6.083317548586    12.000000000000
           C          3.402037372413    -0.015472940331     7.314496355686    12.000000000000
           C          3.105925822013     1.374332423669     7.314496355686    12.000000000000
           C          2.750862646513     1.988636793269     8.545675162686    12.000000000000
           C          1.694396273513     2.938962949369     8.545675162686    12.000000000000
           C          1.046065081513     3.227244725869     7.314496355686    12.000000000000
           C         -0.367221867587     3.375099382669     7.314496355686    12.000000000000
           C         -1.061180596587     3.227244725869     8.545675162686    12.000000000000
           C         -2.291460543187     2.516152429969     8.545675162686    12.000000000000
           C         -2.765978161587     1.988636793269     7.314496355686    12.000000000000
           C         -3.343325981587     0.690210632569     7.314496355686    12.000000000000
           C         -3.417152887487    -0.015472940331     8.545675162686    12.000000000000
           C         -3.121041337087    -1.405278304431     8.545675162686    12.000000000000
           C         -2.765978161587    -2.019582674031     7.314496355686    12.000000000000
           C         -1.709511788487    -2.969908830031     7.314496355686    12.000000000000
           C         -1.061180596587    -3.258190606631     8.545675162686    12.000000000000
           C          0.352106352613    -3.406045263431     8.545675162686    12.000000000000
           C          1.046065081513    -3.258190606631     7.314496355686    12.000000000000
           C          2.276345028113    -2.547098310731     7.314496355686    12.000000000000
           C          2.750862646513    -2.019582674031     8.545675162686    12.000000000000
           C          3.328210466613    -0.721156513231     8.545675162686    12.000000000000
           C          3.402037372413    -0.015472940331     9.776853969786    12.000000000000
           C          3.105925822013     1.374332423669     9.776853969786    12.000000000000
           C          2.750862646513     1.988636793269    11.008032776886    12.000000000000
           C          1.694396273513     2.938962949369    11.008032776886    12.000000000000
           C          1.046065081513     3.227244725869     9.776853969786    12.000000000000
           C         -0.367221867587     3.375099382669     9.776853969786    12.000000000000
           C         -1.061180596587     3.227244725869    11.008032776886    12.000000000000
           C         -2.291460543187     2.516152429969    11.008032776886    12.000000000000
           C         -2.765978161587     1.988636793269     9.776853969786    12.000000000000
           C         -3.343325981587     0.690210632569     9.776853969786    12.000000000000
           C         -3.417152887487    -0.015472940331    11.008032776886    12.000000000000
           C         -3.121041337087    -1.405278304431    11.008032776886    12.000000000000
           C         -2.765978161587    -2.019582674031     9.776853969786    12.000000000000
           C         -1.709511788487    -2.969908830031     9.776853969786    12.000000000000
           C         -1.061180596587    -3.258190606631    11.008032776886    12.000000000000
           C          0.352106352613    -3.406045263431    11.008032776886    12.000000000000
           C          1.046065081513    -3.258190606631     9.776853969786    12.000000000000
           C          2.276345028113    -2.547098310731     9.776853969786    12.000000000000
           C          2.750862646513    -2.019582674031    11.008032776886    12.000000000000
           C          3.328210466613    -0.721156513231    11.008032776886    12.000000000000
           C          3.402037372413    -0.015472940331    12.239211583886    12.000000000000
           C          3.105925822013     1.374332423669    12.239211583886    12.000000000000
           C          2.750862646513     1.988636793269    13.470390390986    12.000000000000
           C          1.694396273513     2.938962949369    13.470390390986    12.000000000000
           C          1.046065081513     3.227244725869    12.239211583886    12.000000000000
           C         -0.367221867587     3.375099382669    12.239211583886    12.000000000000
           C         -1.061180596587     3.227244725869    13.470390390986    12.000000000000
           C         -2.291460543187     2.516152429969    13.470390390986    12.000000000000
           C         -2.765978161587     1.988636793269    12.239211583886    12.000000000000
           C         -3.343325981587     0.690210632569    12.239211583886    12.000000000000
           C         -3.417152887487    -0.015472940331    13.470390390986    12.000000000000
           C         -3.121041337087    -1.405278304431    13.470390390986    12.000000000000
           C         -2.765978161587    -2.019582674031    12.239211583886    12.000000000000
           C         -1.709511788487    -2.969908830031    12.239211583886    12.000000000000
           C         -1.061180596587    -3.258190606631    13.470390390986    12.000000000000
           C          0.352106352613    -3.406045263431    13.470390390986    12.000000000000
           C          1.046065081513    -3.258190606631    12.239211583886    12.000000000000
           C          2.276345028113    -2.547098310731    12.239211583886    12.000000000000
           C          2.750862646513    -2.019582674031    13.470390390986    12.000000000000
           C          3.328210466613    -0.721156513231    13.470390390986    12.000000000000
           C          3.402037372413    -0.015472940331    14.701569198086    12.000000000000
           C          3.105925822013     1.374332423669    14.701569198086    12.000000000000
           C          1.046065081513     3.227244725869    14.701569198086    12.000000000000
           C         -0.367221867587     3.375099382669    14.701569198086    12.000000000000
           C         -2.765978161587     1.988636793269    14.701569198086    12.000000000000
           C         -3.343325981587     0.690210632569    14.701569198086    12.000000000000
           C         -2.765978161587    -2.019582674031    14.701569198086    12.000000000000
           C         -1.709511788487    -2.969908830031    14.701569198086    12.000000000000
           C          1.046065081513    -3.258190606631    14.701569198086    12.000000000000
           C          2.276345028113    -2.547098310731    14.701569198086    12.000000000000
           H          1.438925847013     4.306741712869    15.976886943286     1.007825032070
           H          1.259936730913     2.595843461969    16.283238368986     1.007825032070
           H          2.627689968613     3.180875922669    15.366692218686     1.007825032070
           H          3.664200600313    -0.500287569731   -15.719218141114     1.007825032070
           H          3.147702903313     1.923904492169   -15.719218141114     1.007825032070
           H          1.588164086813     3.326760812569   -15.719218141114     1.007825032070
           H         -0.876986136387     3.584658856869   -15.719218141114     1.007825032070
           H         -2.693105779087     2.534955746669   -15.719218141114     1.007825032070
           H         -3.700154707287     0.270153441769   -15.719218141114     1.007825032070
           H         -3.263039557587    -1.781455078831   -15.719218141114     1.007825032070
           H         -1.420279800287    -3.439077925331   -15.719218141114     1.007825032070
           H          0.665991861813    -3.657338612531   -15.719218141114     1.007825032070
           H          2.811928953113    -2.417003567331   -15.719218141114     1.007825032070
           H          3.664200600313    -0.500287569731    15.574065167686     1.007825032070
           H          3.147702903313     1.923904492169    15.574065167686     1.007825032070
           H         -0.876986136387     3.584658856869    15.574065167686     1.007825032070
           H         -2.693105779087     2.534955746669    15.574065167686     1.007825032070
           H         -3.700154707287     0.270153441769    15.574065167686     1.007825032070
           H         -3.263039557587    -1.781455078831    15.574065167686     1.007825032070
           H         -1.420279800287    -3.439077925331    15.574065167686     1.007825032070
           H          0.665991861813    -3.657338612531    15.574065167686     1.007825032070
           H          2.811928953113    -2.417003567331    15.574065167686     1.007825032070

  Running in c1 symmetry.

  Rotational constants: A =      0.00048  B =      0.00006  C =      0.00006 [cm^-1]
  Rotational constants: A =     14.29799  B =      1.92581  C =      1.92440 [MHz]
  Nuclear repulsion = 74968.347715262381826

  Charge       = 0
  Multiplicity = 1
  Electrons    = 1528
  Nalpha       = 764
  Nbeta        = 764

  ==> Algorithm <==

  SCF Algorithm Type is DF.
  DIIS enabled.
  MOM disabled.
  Fractional occupation disabled.
  Guess Type is SAD.
  Energy threshold   = 1.00e-08
  Density threshold  = 1.00e-08
  Integral threshold = 0.00e+00

  ==> Primary Basis <==

  Basis Set: 6-31G(D)
    Blend: 6-31G(D)
    Number of shells: 1550
    Number of basis function: 3809
    Number of Cartesian functions: 3809
    Spherical Harmonics?: false
    Max angular momentum: 2

  ==> DFT Potential <==

   => PBE Composite Functional <= 

    PBE GGA Exchange-Correlation Functional

    J.P. Perdew et. al., Phys. Rev. Lett., 77(18), 3865-3868, 1996

    Points   =           5000
    Deriv    =              1
    GGA      =           TRUE
    Meta     =          FALSE

    X_LRC        =          FALSE
    X_Hybrid     =          FALSE
    X_Alpha      =   0.000000E+00
    X_Omega      =   0.000000E+00
    C_LRC        =          FALSE
    C_Hybrid     =          FALSE
    C_Alpha      =   0.000000E+00
    C_Omega      =   0.000000E+00

   => Exchange Functionals <=

    1.0000   PBE_X

   => Correlation Functionals <=

    1.0000   PBE_C

   => Molecular Quadrature <=

    Radial Scheme    =       TREUTLER
    Pruning Scheme   =           FLAT
    Nuclear Scheme   =       TREUTLER

    BS radius alpha  =              1
    Pruning alpha    =              1
    Radial Points    =             75
    Spherical Points =            302
    Total Points     =        6059594
    Total Blocks     =           5125
    Max Points       =           4998
    Max Functions    =            870

   => Loading Basis Set <=

    Name: (6-31G(D) AUX)
    Role: JKFIT
    Keyword: DF_BASIS_SCF
    atoms 1-251   entry C          line   120 file /usr/local/Dist/psi4conda/share/psi4/basis/cc-pvdz-jkfit.gbs 
    atoms 252-273 entry H          line    50 file /usr/local/Dist/psi4conda/share/psi4/basis/cc-pvdz-jkfit.gbs 

  ==> Pre-Iterations <==

   -------------------------------------------------------
    Irrep   Nso     Nmo     Nalpha   Nbeta   Ndocc  Nsocc
   -------------------------------------------------------
     A       3809    3809       0       0       0       0
   -------------------------------------------------------
    Total    3809    3809     764     764     764       0
   -------------------------------------------------------

  ==> Integral Setup <==

