
    -----------------------------------------------------------------------
          Psi4: An Open-Source Ab Initio Electronic Structure Package
                               Psi4 1.3a2.dev49 

                         Git: Rev {master} f687f49 


    R. M. Parrish, L. A. Burns, D. G. A. Smith, A. C. Simmonett,
    A. E. DePrince III, E. G. Hohenstein, U. Bozkaya, A. Yu. Sokolov,
    R. Di Remigio, R. M. Richard, J. F. Gonthier, A. M. James,
    H. R. McAlexander, A. Kumar, M. Saitow, X. Wang, B. P. Pritchard,
    P. Verma, H. F. Schaefer III, K. Patkowski, R. A. King, E. F. Valeev,
    F. A. Evangelista, J. M. Turney, T. D. Crawford, and C. D. Sherrill,
    J. Chem. Theory Comput. 13(7) pp 3185--3197 (2017).
    (doi: 10.1021/acs.jctc.7b00174)


                         Additional Contributions by
    P. Kraus, H. Kruse, M. H. Lechner, M. C. Schieber, and R. A. Shaw

    -----------------------------------------------------------------------


    Psi4 started on: Thursday, 23 July 2020 10:54AM

    Process ID: 8655
    Host:       atom
    PSIDATADIR: /home/localadmin/miniconda/envs/p4env/share/psi4
    Memory:     500.0 MiB
    Threads:    1
    
  ==> Input File <==

--------------------------------------------------------------------------
import psi4
psi4.set_memory(3e9)
psi4.set_options({'geom_maxiter':100})
cnt=psi4.geometry("""
0 1
C     3.4773235054  -0.1137423500  -2.5374873557
C     3.1941619405   1.2264647832  -2.6290839558
C     2.7342280381   1.9485562843  -1.4681703176
C     1.6851077478   2.9203892477  -1.5310435774
C     1.0002904071   3.2417483282  -2.7603798279
C    -0.3618167543   3.4154453312  -2.7663428002
C    -1.1160233330   3.2773279844  -1.5431226370
C    -2.3704975961   2.5906901709  -1.4897592452
C    -2.9733728028   1.9888170332  -2.6555092773
C    -3.5496313074   0.7458680011  -2.5681635615
C    -3.5535092250   0.0360847988  -1.3107756793
C    -3.2662622303  -1.3630138379  -1.2200890911
C    -2.9574374566  -2.1646433429  -2.3799162487
C    -1.9450797465  -3.0909923241  -2.3281344359
C    -1.1871758421  -3.2705706365  -1.1135477113
C     0.2338732367  -3.4460345551  -1.1144736467
C     1.0169667791  -3.4513960426  -2.3260650071
C     2.2239965463  -2.7984799575  -2.3635602882
C     2.7106599309  -2.1013518427  -1.1962219864
C     3.3099473050  -0.8053634426  -1.2816113461
C     3.3530715711  -0.0165160444  -0.0885617242
C     3.0610404847   1.3939100961  -0.1871432442
C     2.7422462422   2.1189112262   1.0061529820
C     1.6951946602   3.0907827609   0.9453911161
C     1.0296915218   3.2830968064  -0.3092173102
C    -0.4019322933   3.4671082635  -0.3151342438
C    -1.1042073273   3.4472558491   0.9342901303
C    -2.3571461939   2.7585778837   0.9873955820
C -3.13244873795 1.4787714229500004 0.3400294277347839
C -3.13244873795 1.4787714229500004 -0.6721874490347839
C    -3.5329146120   0.2009587782   1.1665240866
C    -3.2407256913  -1.1968861056   1.2579416692
C    -2.8750543486  -1.8869999130   0.0556268498
C    -1.8122900635  -2.8619513951   0.1098537486
C    -1.1633250109  -3.1075007257   1.3648564714
C     0.2526297147  -3.2977619353   1.3609369659
C     0.9392796012  -3.2128109884   0.1091956513
C     2.2069823495  -2.5250915608   0.0755064745
C     2.7299700556  -1.9599139575   1.2905920181
C     3.3106595150  -0.6523787026   1.2017608514
C     3.5051978812   0.2204565178   2.3397174931
C     3.2214273786   1.5605997352   2.2457974583
C     1.0222889384   3.5770238954   2.1260660353
C    -0.3394586308   3.7513765784   2.1205024918
C    -2.9449983773   2.3176775425   2.2305460673
C    -3.5161305998   1.0725184976   2.3178117459
C    -2.9030014564  -1.8334044902   2.5089858470
C    -1.8916745798  -2.7606363670   2.5609979670
C     1.0740775384  -3.2241368428   2.5424271164
C     2.2999635311  -2.5950632459   2.5354223390
H     3.6950322310  -0.6815552453  -3.4472690889
H     3.1903409642   1.7105943432  -3.6105408338
H     1.5426368887   3.2119649797  -3.7104517310
H    -0.8863358091   3.5212066841  -3.7209816822
H    -2.8515346369   2.4582773329  -3.6365563365
H    -3.8801370877   0.2404609094  -3.4808420562
H    -3.4333452577  -1.9408208146  -3.3396037585
H    -1.6281535064  -3.5934133791  -3.2473335329
H     0.5932127205  -3.8553507809  -3.2506299608
H     2.7465311637  -2.6882427578  -3.3187069049
H     3.7667135083  -0.1952154538   3.3132624857
H     3.2452762399   2.1775199204   3.1496070767
H     1.5741552326   3.6755145270   3.0659903552
H    -0.8558003921   3.9872154788   3.0561322690
H    -2.8147716069   2.9154363776   3.1379598145
H    -3.8348207620   0.6934734187   3.2937444310
H    -3.3540212200  -1.4768802345   3.4401154089
H    -1.5468219517  -3.1284876621   3.5324252498
H     0.6839767985  -3.6022605276   3.4948635957
C     3.1037938860  -2.5261632701   3.8161517513
H     4.1869244443  -2.4675317592   3.6191736624
H     2.9196439584  -3.4286936392   4.4228765045
H     2.8291373270  -1.6575629017   4.4430353003
""")

psi4.optimize('pbe/6-31G(d)',molecule=cnt)
--------------------------------------------------------------------------

  Memory set to   2.794 GiB by Python driver.
gradient() will perform analytic gradient computation.

*** tstart() called on atom
*** at Thu Jul 23 10:54:17 2020

   => Loading Basis Set <=

    Name: 6-31G(D)
    Role: ORBITAL
    Keyword: BASIS
    atoms 1-50, 70     entry C          line   111 file /home/localadmin/miniconda/envs/p4env/share/psi4/basis/6-31g_d_.gbs 
    atoms 51-69, 71-73 entry H          line    44 file /home/localadmin/miniconda/envs/p4env/share/psi4/basis/6-31g_d_.gbs 


         ---------------------------------------------------------
                                   SCF
            by Justin Turney, Rob Parrish, Andy Simmonett
                             and Daniel Smith
                              RKS Reference
                        1 Threads,   2861 MiB Core
         ---------------------------------------------------------

  ==> Geometry <==

    Molecular point group: c1
    Full point group: C1

    Geometry (in Angstrom), charge = 0, multiplicity = 1:

       Center              X                  Y                   Z               Mass       
    ------------   -----------------  -----------------  -----------------  -----------------
         C            3.477323505403    -0.113742349998    -2.537487355697    12.000000000000
         C            3.194161940503     1.226464783202    -2.629083955797    12.000000000000
         C            2.734228038103     1.948556284302    -1.468170317597    12.000000000000
         C            1.685107747803     2.920389247702    -1.531043577397    12.000000000000
         C            1.000290407103     3.241748328202    -2.760379827897    12.000000000000
         C           -0.361816754297     3.415445331202    -2.766342800197    12.000000000000
         C           -1.116023332997     3.277327984402    -1.543122636997    12.000000000000
         C           -2.370497596097     2.590690170902    -1.489759245197    12.000000000000
         C           -2.973372802797     1.988817033202    -2.655509277297    12.000000000000
         C           -3.549631307397     0.745868001102    -2.568163561497    12.000000000000
         C           -3.553509224997     0.036084798802    -1.310775679297    12.000000000000
         C           -3.266262230297    -1.363013837898    -1.220089091097    12.000000000000
         C           -2.957437456597    -2.164643342898    -2.379916248697    12.000000000000
         C           -1.945079746497    -3.090992324098    -2.328134435897    12.000000000000
         C           -1.187175842097    -3.270570636498    -1.113547711297    12.000000000000
         C            0.233873236703    -3.446034555098    -1.114473646697    12.000000000000
         C            1.016966779103    -3.451396042598    -2.326065007097    12.000000000000
         C            2.223996546303    -2.798479957498    -2.363560288197    12.000000000000
         C            2.710659930903    -2.101351842698    -1.196221986397    12.000000000000
         C            3.309947305003    -0.805363442598    -1.281611346097    12.000000000000
         C            3.353071571103    -0.016516044398    -0.088561724197    12.000000000000
         C            3.061040484703     1.393910096102    -0.187143244197    12.000000000000
         C            2.742246242203     2.118911226202     1.006152982003    12.000000000000
         C            1.695194660203     3.090782760902     0.945391116103    12.000000000000
         C            1.029691521803     3.283096806402    -0.309217310197    12.000000000000
         C           -0.401932293297     3.467108263502    -0.315134243797    12.000000000000
         C           -1.104207327297     3.447255849102     0.934290130303    12.000000000000
         C           -2.357146193897     2.758577883702     0.987395582003    12.000000000000
         C           -3.132448737947     1.478771422952     0.340029427738    12.000000000000
         C           -3.132448737947     1.478771422952    -0.672187449032    12.000000000000
         C           -3.532914611997     0.200958778202     1.166524086603    12.000000000000
         C           -3.240725691297    -1.196886105598     1.257941669203    12.000000000000
         C           -2.875054348597    -1.886999912998     0.055626849803    12.000000000000
         C           -1.812290063497    -2.861951395098     0.109853748603    12.000000000000
         C           -1.163325010897    -3.107500725698     1.364856471403    12.000000000000
         C            0.252629714703    -3.297761935298     1.360936965903    12.000000000000
         C            0.939279601203    -3.212810988398     0.109195651303    12.000000000000
         C            2.206982349503    -2.525091560798     0.075506474503    12.000000000000
         C            2.729970055603    -1.959913957498     1.290592018103    12.000000000000
         C            3.310659515003    -0.652378702598     1.201760851403    12.000000000000
         C            3.505197881203     0.220456517802     2.339717493103    12.000000000000
         C            3.221427378603     1.560599735202     2.245797458303    12.000000000000
         C            1.022288938403     3.577023895402     2.126066035303    12.000000000000
         C           -0.339458630797     3.751376578402     2.120502491803    12.000000000000
         C           -2.944998377297     2.317677542502     2.230546067303    12.000000000000
         C           -3.516130599797     1.072518497602     2.317811745903    12.000000000000
         C           -2.903001456397    -1.833404490198     2.508985847003    12.000000000000
         C           -1.891674579797    -2.760636366998     2.560997967003    12.000000000000
         C            1.074077538403    -3.224136842798     2.542427116403    12.000000000000
         C            2.299963531103    -2.595063245898     2.535422339003    12.000000000000
         H            3.695032231003    -0.681555245298    -3.447269088897     1.007825032070
         H            3.190340964203     1.710594343202    -3.610540833797     1.007825032070
         H            1.542636888703     3.211964979702    -3.710451730997     1.007825032070
         H           -0.886335809097     3.521206684102    -3.720981682197     1.007825032070
         H           -2.851534636897     2.458277332902    -3.636556336497     1.007825032070
         H           -3.880137087697     0.240460909402    -3.480842056197     1.007825032070
         H           -3.433345257697    -1.940820814598    -3.339603758497     1.007825032070
         H           -1.628153506397    -3.593413379098    -3.247333532897     1.007825032070
         H            0.593212720503    -3.855350780898    -3.250629960797     1.007825032070
         H            2.746531163703    -2.688242757798    -3.318706904897     1.007825032070
         H            3.766713508303    -0.195215453798     3.313262485703     1.007825032070
         H            3.245276239903     2.177519920402     3.149607076703     1.007825032070
         H            1.574155232603     3.675514527002     3.065990355203     1.007825032070
         H           -0.855800392097     3.987215478802     3.056132269003     1.007825032070
         H           -2.814771606897     2.915436377602     3.137959814503     1.007825032070
         H           -3.834820761997     0.693473418702     3.293744431003     1.007825032070
         H           -3.354021219997    -1.476880234498     3.440115408903     1.007825032070
         H           -1.546821951697    -3.128487662098     3.532425249803     1.007825032070
         H            0.683976798503    -3.602260527598     3.494863595703     1.007825032070
         C            3.103793886003    -2.526163270098     3.816151751303    12.000000000000
         H            4.186924444303    -2.467531759198     3.619173662403     1.007825032070
         H            2.919643958403    -3.428693639198     4.422876504503     1.007825032070
         H            2.829137327003    -1.657562901698     4.443035300303     1.007825032070

  Running in c1 symmetry.

  Rotational constants: A =      0.00282  B =      0.00265  C =      0.00214 [cm^-1]
  Rotational constants: A =     84.65415  B =     79.58096  C =     64.11573 [MHz]
  Nuclear repulsion = 6336.021467447929354

  Charge       = 0
  Multiplicity = 1
  Electrons    = 328
  Nalpha       = 164
  Nbeta        = 164

  ==> Algorithm <==

  SCF Algorithm Type is DF.
  DIIS enabled.
  MOM disabled.
  Fractional occupation disabled.
  Guess Type is SAD.
  Energy threshold   = 1.00e-08
  Density threshold  = 1.00e-08
  Integral threshold = 0.00e+00

  ==> Primary Basis <==

  Basis Set: 6-31G(D)
    Blend: 6-31G(D)
    Number of shells: 350
    Number of basis function: 809
    Number of Cartesian functions: 809
    Spherical Harmonics?: false
    Max angular momentum: 2

  ==> DFT Potential <==

   => Composite Functional: PBE <= 

    PBE GGA Exchange-Correlation Functional

    J.P. Perdew et. al., Phys. Rev. Lett., 77(18), 3865-3868, 1996


    Deriv               =              1
    GGA                 =           TRUE
    Meta                =          FALSE

    Exchange Hybrid     =          FALSE
    MP2 Hybrid          =          FALSE

   => Exchange Functionals <=

    1.0000     XC_GGA_X_PBE

   => Correlation Functionals <=

    1.0000     XC_GGA_C_PBE

   => Molecular Quadrature <=

    Radial Scheme          =       TREUTLER
    Pruning Scheme         =           FLAT
    Nuclear Scheme         =       TREUTLER

    BS radius alpha        =              1
    Pruning alpha          =              1
    Radial Points          =             75
    Spherical Points       =            302
    Total Points           =        1619771
    Total Blocks           =          11160
    Max Points             =            256
    Max Functions          =            538

   => Loading Basis Set <=

    Name: (6-31G(D) AUX)
    Role: JKFIT
    Keyword: DF_BASIS_SCF
    atoms 1-50, 70     entry C          line   121 file /home/localadmin/miniconda/envs/p4env/share/psi4/basis/cc-pvdz-jkfit.gbs 
    atoms 51-69, 71-73 entry H          line    51 file /home/localadmin/miniconda/envs/p4env/share/psi4/basis/cc-pvdz-jkfit.gbs 

  ==> Pre-Iterations <==

   -------------------------------------------------------
    Irrep   Nso     Nmo     Nalpha   Nbeta   Ndocc  Nsocc
   -------------------------------------------------------
     A        809     809       0       0       0       0
   -------------------------------------------------------
    Total     809     809     164     164     164       0
   -------------------------------------------------------

  ==> Integral Setup <==

  ==> DiskDFJK: Density-Fitted J/K Matrices <==

    J tasked:                  Yes
    K tasked:                   No
    wK tasked:                  No
    OpenMP threads:              1
    Integrals threads:           1
    Memory [MiB]:             1931
    Algorithm:                Disk
    Integral Cache:           NONE
    Schwarz Cutoff:          1E-12
    Fitting Condition:       1E-12

   => Auxiliary Basis Set <=

  Basis Set: (6-31G(D) AUX)
    Blend: CC-PVDZ-JKFIT
    Number of shells: 1422
    Number of basis function: 4681
    Number of Cartesian functions: 4681
    Spherical Harmonics?: false
    Max angular momentum: 3

  Cached 1.8% of DFT collocation blocks in 219 MiB.

  Minimum eigenvalue in the overlap matrix is 9.9345410952E-05.
  Using Symmetric Orthogonalization.

  SCF Guess: Superposition of Atomic Densities via on-the-fly atomic UHF.

  ==> Iterations <==

                           Total Energy        Delta E     RMS |[F,P]|

   @DF-RKS iter   0: -1963.61166548656456   -1.96361e+03   1.46934e-02 
   @DF-RKS iter   1: -1952.64795200537992    1.09637e+01   1.68910e-03 
   @DF-RKS iter   2: -1950.42356446088343    2.22439e+00   2.93111e-03 DIIS
   @DF-RKS iter   3: -1952.27898969729267   -1.85543e+00   1.81259e-03 DIIS
   @DF-RKS iter   4: -1953.44816927879492   -1.16918e+00   7.32290e-04 DIIS
   @DF-RKS iter   5: -1953.52214008214150   -7.39708e-02   5.94139e-04 DIIS
   @DF-RKS iter   6: -1953.64267363102886   -1.20534e-01   3.12051e-04 DIIS
   @DF-RKS iter   7: -1953.67866462296979   -3.59910e-02   1.05454e-04 DIIS
   @DF-RKS iter   8: -1953.68156559199406   -2.90097e-03   6.52129e-05 DIIS
   @DF-RKS iter   9: -1953.68266415511289   -1.09856e-03   3.72364e-05 DIIS
   @DF-RKS iter  10: -1953.68309207639641   -4.27921e-04   2.16932e-05 DIIS
   @DF-RKS iter  11: -1953.68330774772267   -2.15671e-04   5.19826e-06 DIIS
   @DF-RKS iter  12: -1953.68331576016249   -8.01244e-06   2.66259e-06 DIIS
   @DF-RKS iter  13: -1953.68331790015509   -2.13999e-06   1.26979e-06 DIIS
   @DF-RKS iter  14: -1953.68331851857988   -6.18425e-07   4.84759e-07 DIIS
   @DF-RKS iter  15: -1953.68331860605349   -8.74736e-08   1.62720e-07 DIIS
   @DF-RKS iter  16: -1953.68331860399712    2.05637e-09   1.73623e-07 DIIS
   @DF-RKS iter  17: -1953.68331861648267   -1.24855e-08   3.84758e-08 DIIS
   @DF-RKS iter  18: -1953.68331861679553   -3.12866e-10   2.44037e-08 DIIS
   @DF-RKS iter  19: -1953.68331861703473   -2.39197e-10   5.23610e-09 DIIS
  Energy converged.


  ==> Post-Iterations <==

    Orbital Energies [Eh]
    ---------------------

    Doubly Occupied:                                                      

       1A     -9.929372     2A     -9.929093     3A     -9.928813  
       4A     -9.928699     5A     -9.923224     6A     -9.922489  
       7A     -9.922309     8A     -9.921846     9A     -9.921594  
      10A     -9.921313    11A     -9.920701    12A     -9.920232  
      13A     -9.919746    14A     -9.919740    15A     -9.919635  
      16A     -9.919554    17A     -9.919434    18A     -9.919229  
      19A     -9.919074    20A     -9.919052    21A     -9.919003  
      22A     -9.918748    23A     -9.918688    24A     -9.918654  
      25A     -9.918435    26A     -9.918312    27A     -9.918059  
      28A     -9.917781    29A     -9.916827    30A     -9.913588  
      31A     -9.913214    32A     -9.912980    33A     -9.912868  
      34A     -9.911760    35A     -9.911351    36A     -9.911241  
      37A     -9.911108    38A     -9.911053    39A     -9.910806  
      40A     -9.910568    41A     -9.910341    42A     -9.909585  
      43A     -9.908767    44A     -9.905979    45A     -9.904924  
      46A     -9.901589    47A     -9.901451    48A     -9.900761  
      49A     -9.900690    50A     -9.900051    51A     -9.888343  
      52A     -0.834388    53A     -0.823192    54A     -0.817169  
      55A     -0.798999    56A     -0.787761    57A     -0.776961  
      58A     -0.766976    59A     -0.761792    60A     -0.753221  
      61A     -0.745213    62A     -0.739567    63A     -0.737385  
      64A     -0.708439    65A     -0.700927    66A     -0.693650  
      67A     -0.691921    68A     -0.687726    69A     -0.686329  
      70A     -0.675366    71A     -0.672861    72A     -0.668648  
      73A     -0.648008    74A     -0.645629    75A     -0.632115  
      76A     -0.626536    77A     -0.604453    78A     -0.595568  
      79A     -0.583933    80A     -0.574333    81A     -0.569239  
      82A     -0.566072    83A     -0.559554    84A     -0.548562  
      85A     -0.545190    86A     -0.539987    87A     -0.537840  
      88A     -0.536594    89A     -0.521392    90A     -0.499081  
      91A     -0.495868    92A     -0.488105    93A     -0.486581  
      94A     -0.481311    95A     -0.471605    96A     -0.467869  
      97A     -0.464568    98A     -0.461426    99A     -0.449147  
     100A     -0.447693   101A     -0.440265   102A     -0.433089  
     103A     -0.429642   104A     -0.426841   105A     -0.413677  
     106A     -0.410915   107A     -0.399056   108A     -0.397870  
     109A     -0.396800   110A     -0.395205   111A     -0.394050  
     112A     -0.391180   113A     -0.388775   114A     -0.387915  
     115A     -0.382320   116A     -0.379504   117A     -0.376130  
     118A     -0.374399   119A     -0.368599   120A     -0.364860  
     121A     -0.362725   122A     -0.359364   123A     -0.356596  
     124A     -0.355129   125A     -0.350862   126A     -0.350367  
     127A     -0.348553   128A     -0.347398   129A     -0.344831  
     130A     -0.338657   131A     -0.336268   132A     -0.329310  
     133A     -0.321173   134A     -0.320680   135A     -0.312044  
     136A     -0.310292   137A     -0.305891   138A     -0.300490  
     139A     -0.299823   140A     -0.297524   141A     -0.293032  
     142A     -0.291339   143A     -0.285418   144A     -0.277262  
     145A     -0.275988   146A     -0.274322   147A     -0.273262  
     148A     -0.271130   149A     -0.268530   150A     -0.264429  
     151A     -0.234871   152A     -0.231400   153A     -0.231009  
     154A     -0.230033   155A     -0.228314   156A     -0.223596  
     157A     -0.215398   158A     -0.212626   159A     -0.203179  
     160A     -0.196815   161A     -0.180251   162A     -0.179620  
     163A     -0.157462   164A     -0.143958  

    Virtual:                                                              

     165A     -0.111026   166A     -0.103339   167A     -0.075242  
     168A     -0.073260   169A     -0.066352   170A     -0.054727  
     171A     -0.050357   172A     -0.042256   173A     -0.035143  
     174A     -0.032648   175A     -0.026913   176A     -0.016583  
     177A     -0.015223   178A      0.003961   179A      0.012372  
     180A      0.017388   181A      0.029754   182A      0.036864  
     183A      0.043548   184A      0.045894   185A      0.055068  
     186A      0.061738   187A      0.063732   188A      0.064540  
     189A      0.070005   190A      0.071060   191A      0.076056  
     192A      0.084099   193A      0.086351   194A      0.090592  
     195A      0.093568   196A      0.096540   197A      0.098808  
     198A      0.104640   199A      0.105384   200A      0.106108  
     201A      0.114052   202A      0.124759   203A      0.137084  
     204A      0.150436   205A      0.154624   206A      0.157556  
     207A      0.163025   208A      0.170699   209A      0.174082  
     210A      0.181404   211A      0.183176   212A      0.186826  
     213A      0.189929   214A      0.193346   215A      0.196523  
     216A      0.198660   217A      0.201041   218A      0.214263  
     219A      0.214699   220A      0.216628   221A      0.218864  
     222A      0.221488   223A      0.223517   224A      0.233134  
     225A      0.234196   226A      0.235585   227A      0.237231  
     228A      0.239504   229A      0.241366   230A      0.247411  
     231A      0.262555   232A      0.265132   233A      0.277142  
     234A      0.279252   235A      0.285729   236A      0.296625  
     237A      0.298412   238A      0.300784   239A      0.304810  
     240A      0.313340   241A      0.314165   242A      0.317414  
     243A      0.320994   244A      0.333796   245A      0.335108  
     246A      0.339490   247A      0.347462   248A      0.351890  
     249A      0.355742   250A      0.375715   251A      0.378640  
     252A      0.380854   253A      0.386464   254A      0.407336  
     255A      0.410401   256A      0.414634   257A      0.420286  
     258A      0.424868   259A      0.426907   260A      0.433162  
     261A      0.435667   262A      0.439538   263A      0.445458  
     264A      0.450184   265A      0.456330   266A      0.460101  
     267A      0.461107   268A      0.463892   269A      0.464733  
     270A      0.465924   271A      0.471750   272A      0.475927  
     273A      0.482307   274A      0.485527   275A      0.486780  
     276A      0.488378   277A      0.491512   278A      0.492931  
     279A      0.494068   280A      0.499648   281A      0.500539  
     282A      0.501619   283A      0.503386   284A      0.505101  
     285A      0.508045   286A      0.508583   287A      0.510419  
     288A      0.512913   289A      0.514093   290A      0.516486  
     291A      0.518770   292A      0.519620   293A      0.520724  
     294A      0.525966   295A      0.527933   296A      0.529568  
     297A      0.532070   298A      0.533502   299A      0.535489  
     300A      0.535761   301A      0.539167   302A      0.541030  
     303A      0.541820   304A      0.542395   305A      0.543397  
     306A      0.546510   307A      0.548824   308A      0.549079  
     309A      0.554271   310A      0.554873   311A      0.557802  
     312A      0.561738   313A      0.563144   314A      0.566390  
     315A      0.568151   316A      0.569974   317A      0.573048  
     318A      0.577623   319A      0.583975   320A      0.587601  
     321A      0.591099   322A      0.593969   323A      0.596016  
     324A      0.597812   325A      0.599861   326A      0.604073  
     327A      0.605686   328A      0.610394   329A      0.612020  
     330A      0.614188   331A      0.614910   332A      0.621186  
     333A      0.621591   334A      0.627838   335A      0.636174  
     336A      0.640344   337A      0.642953   338A      0.646011  
     339A      0.647955   340A      0.652833   341A      0.657326  
     342A      0.660137   343A      0.662055   344A      0.667795  
     345A      0.681438   346A      0.682819   347A      0.685193  
     348A      0.687284   349A      0.693008   350A      0.693753  
     351A      0.701891   352A      0.708039   353A      0.710338  
     354A      0.711805   355A      0.721106   356A      0.725302  
     357A      0.731357   358A      0.733978   359A      0.741822  
     360A      0.751471   361A      0.752287   362A      0.757513  
     363A      0.761137   364A      0.762664   365A      0.768942  
     366A      0.771676   367A      0.774459   368A      0.775849  
     369A      0.781149   370A      0.782037   371A      0.788771  
     372A      0.793814   373A      0.795743   374A      0.803869  
     375A      0.805822   376A      0.811331   377A      0.817728  
     378A      0.820679   379A      0.824702   380A      0.832073  
     381A      0.834436   382A      0.835395   383A      0.836809  
     384A      0.837680   385A      0.839721   386A      0.841251  
     387A      0.842352   388A      0.846263   389A      0.849507  
     390A      0.856297   391A      0.858915   392A      0.867164  
     393A      0.869161   394A      0.874727   395A      0.878553  
     396A      0.880108   397A      0.882825   398A      0.886543  
     399A      0.889449   400A      0.896510   401A      0.898121  
     402A      0.902117   403A      0.907830   404A      0.911296  
     405A      0.912688   406A      0.914988   407A      0.917273  
     408A      0.922257   409A      0.925843   410A      0.932205  
     411A      0.933630   412A      0.947000   413A      0.949078  
     414A      0.958419   415A      0.960150   416A      0.966043  
     417A      0.968485   418A      0.975605   419A      0.983229  
     420A      0.985154   421A      0.988560   422A      0.989411  
     423A      0.994584   424A      0.996744   425A      1.003845  
     426A      1.013360   427A      1.014795   428A      1.020928  
     429A      1.029960   430A      1.033421   431A      1.037053  
     432A      1.052168   433A      1.054295   434A      1.060347  
     435A      1.063797   436A      1.067554   437A      1.070417  
     438A      1.077110   439A      1.097859   440A      1.099003  
     441A      1.101300   442A      1.104251   443A      1.110426  
     444A      1.114066   445A      1.116704   446A      1.121126  
     447A      1.126798   448A      1.130006   449A      1.135929  
     450A      1.140261   451A      1.146633   452A      1.152441  
     453A      1.163011   454A      1.164365   455A      1.173963  
     456A      1.180511   457A      1.183936   458A      1.191070  
     459A      1.197256   460A      1.198526   461A      1.215036  
     462A      1.223250   463A      1.226200   464A      1.231336  
     465A      1.243153   466A      1.243614   467A      1.249209  
     468A      1.262422   469A      1.270349   470A      1.271098  
     471A      1.281219   472A      1.290132   473A      1.293012  
     474A      1.297525   475A      1.299428   476A      1.306073  
     477A      1.314402   478A      1.317203   479A      1.325591  
     480A      1.328817   481A      1.331726   482A      1.333756  
     483A      1.339207   484A      1.341740   485A      1.345407  
     486A      1.351248   487A      1.359064   488A      1.363931  
     489A      1.364380   490A      1.367958   491A      1.371818  
     492A      1.373002   493A      1.378826   494A      1.386228  
     495A      1.387564   496A      1.396865   497A      1.401147  
     498A      1.408242   499A      1.417623   500A      1.425918  
     501A      1.432799   502A      1.434507   503A      1.440647  
     504A      1.444584   505A      1.449737   506A      1.451945  
     507A      1.458161   508A      1.464969   509A      1.466354  
     510A      1.493128   511A      1.495235   512A      1.502072  
     513A      1.505733   514A      1.508389   515A      1.511770  
     516A      1.518237   517A      1.520524   518A      1.525008  
     519A      1.528248   520A      1.531010   521A      1.535655  
     522A      1.538471   523A      1.544736   524A      1.546400  
     525A      1.561974   526A      1.566537   527A      1.569087  
     528A      1.572220   529A      1.583360   530A      1.589140  
     531A      1.591304   532A      1.598058   533A      1.621222  
     534A      1.630580   535A      1.650562   536A      1.652486  
     537A      1.664510   538A      1.664915   539A      1.674409  
     540A      1.680548   541A      1.685693   542A      1.686148  
     543A      1.690223   544A      1.706636   545A      1.714677  
     546A      1.720337   547A      1.720804   548A      1.722621  
     549A      1.726983   550A      1.736051   551A      1.746074  
     552A      1.752876   553A      1.754676   554A      1.760963  
     555A      1.768176   556A      1.769585   557A      1.772294  
     558A      1.775257   559A      1.784881   560A      1.786394  
     561A      1.790591   562A      1.794030   563A      1.796330  
     564A      1.801751   565A      1.803582   566A      1.810064  
     567A      1.812418   568A      1.814861   569A      1.820072  
     570A      1.822877   571A      1.825892   572A      1.839204  
     573A      1.839986   574A      1.841276   575A      1.847260  
     576A      1.858007   577A      1.862885   578A      1.871016  
     579A      1.871569   580A      1.874369   581A      1.877873  
     582A      1.881406   583A      1.889005   584A      1.890662  
     585A      1.897629   586A      1.899319   587A      1.904904  
     588A      1.917417   589A      1.917736   590A      1.923767  
     591A      1.928777   592A      1.938462   593A      1.953006  
     594A      1.957061   595A      1.960810   596A      1.966038  
     597A      1.973002   598A      1.982247   599A      1.991057  
     600A      1.999522   601A      2.007114   602A      2.010904  
     603A      2.013708   604A      2.017798   605A      2.024240  
     606A      2.038733   607A      2.046455   608A      2.048097  
     609A      2.055984   610A      2.065517   611A      2.067953  
     612A      2.071639   613A      2.074898   614A      2.084875  
     615A      2.088357   616A      2.094698   617A      2.100354  
     618A      2.107829   619A      2.109289   620A      2.111062  
     621A      2.113590   622A      2.117863   623A      2.120475  
     624A      2.127291   625A      2.129675   626A      2.135933  
     627A      2.139402   628A      2.154485   629A      2.156115  
     630A      2.162985   631A      2.165649   632A      2.166676  
     633A      2.168210   634A      2.175656   635A      2.187544  
     636A      2.189449   637A      2.191632   638A      2.198608  
     639A      2.200275   640A      2.203558   641A      2.204636  
     642A      2.207073   643A      2.214516   644A      2.229388  
     645A      2.240006   646A      2.251269   647A      2.259904  
     648A      2.266923   649A      2.272799   650A      2.280559  
     651A      2.284537   652A      2.297022   653A      2.297663  
     654A      2.301319   655A      2.315386   656A      2.320784  
     657A      2.337857   658A      2.348647   659A      2.354404  
     660A      2.354887   661A      2.364944   662A      2.370636  
     663A      2.373146   664A      2.378855   665A      2.393070  
     666A      2.400473   667A      2.406256   668A      2.409133  
     669A      2.411647   670A      2.419896   671A      2.423604  
     672A      2.431013   673A      2.438761   674A      2.439259  
     675A      2.447541   676A      2.450550   677A      2.453258  
     678A      2.458867   679A      2.467442   680A      2.481044  
     681A      2.495350   682A      2.506315   683A      2.509980  
     684A      2.524408   685A      2.529105   686A      2.532589  
     687A      2.535784   688A      2.543424   689A      2.560861  
     690A      2.567370   691A      2.572457   692A      2.576161  
     693A      2.580739   694A      2.585150   695A      2.586980  
     696A      2.588148   697A      2.599264   698A      2.617804  
     699A      2.625911   700A      2.635721   701A      2.643388  
     702A      2.652963   703A      2.659008   704A      2.670151  
     705A      2.675814   706A      2.677882   707A      2.684290  
     708A      2.688435   709A      2.692014   710A      2.697422  
     711A      2.698912   712A      2.699589   713A      2.701275  
     714A      2.709205   715A      2.712815   716A      2.718172  
     717A      2.723975   718A      2.729906   719A      2.734772  
     720A      2.738509   721A      2.744022   722A      2.751401  
     723A      2.752900   724A      2.774404   725A      2.778488  
     726A      2.783423   727A      2.796091   728A      2.816397  
     729A      2.822564   730A      2.826949   731A      2.846934  
     732A      2.852910   733A      2.892996   734A      2.898154  
     735A      2.933751   736A      2.967415   737A      2.972566  
     738A      2.981365   739A      2.984639   740A      2.989154  
     741A      2.997494   742A      3.020984   743A      3.045122  
     744A      3.061729   745A      3.068942   746A      3.094558  
     747A      3.119488   748A      3.153281   749A      3.157012  
     750A      3.192162   751A      3.205588   752A      3.285060  
     753A      3.335747   754A      3.343964   755A      3.363184  
     756A      3.418583   757A      3.427012   758A      3.840309  
     759A      3.893978   760A      3.923854   761A      3.969346  
     762A      3.973520   763A      3.983100   764A      3.986626  
     765A      3.990293   766A      3.995063   767A      4.005081  
     768A      4.020095   769A      4.032256   770A      4.034550  
     771A      4.043924   772A      4.048315   773A      4.056003  
     774A      4.061919   775A      4.073694   776A      4.075451  
     777A      4.115571   778A      4.124576   779A      4.128269  
     780A      4.129896   781A      4.154389   782A      4.161875  
     783A      4.175201   784A      4.239092   785A      4.244894  
     786A      4.250392   787A      4.257781   788A      4.258913  
     789A      4.272941   790A      4.287652   791A      4.301818  
     792A      4.324983   793A      4.329314   794A      4.338793  
     795A      4.360398   796A      4.378611   797A      4.393843  
     798A      4.404472   799A      4.432997   800A      4.453391  
     801A      4.522943   802A      4.547586   803A      4.558092  
     804A      4.611313   805A      4.629092   806A      4.725014  
     807A      4.803448   808A      4.842407   809A      4.881826  

    Final Occupation by Irrep:
              A 
    DOCC [   164 ]

  @DF-RKS Final Energy: -1953.68331861703473

   => Energetics <=

    Nuclear Repulsion Energy =           6336.0214674479293535
    One-Electron Energy =              -15264.4256410359939764
    Two-Electron Energy =                7257.1072173320008005
    DFT Exchange-Correlation Energy =    -282.3863623609719298
    Empirical Dispersion Energy =           0.0000000000000000
    VV10 Nonlocal Energy =                  0.0000000000000000
    Total Energy =                      -1953.6833186170347290

Computation Completed


Properties will be evaluated at   0.000000,   0.000000,   0.000000 [a0]

Properties computed using the SCF density matrix

  Nuclear Dipole Moment: [e a0]
     X:     5.5197      Y:    -3.8665      Z:     6.7557

  Electronic Dipole Moment: [e a0]
     X:    -5.0231      Y:     3.5967      Z:    -6.5992

  Dipole Moment: [e a0]
     X:     0.4966      Y:    -0.2698      Z:     0.1564     Total:     0.5864

  Dipole Moment: [D]
     X:     1.2623      Y:    -0.6857      Z:     0.3976     Total:     1.4905


*** tstop() called on atom at Thu Jul 23 11:36:51 2020
Module time:
	user time   =    2448.73 seconds =      40.81 minutes
	system time =      97.72 seconds =       1.63 minutes
	total time  =       2554 seconds =      42.57 minutes
Total time:
	user time   =    2448.73 seconds =      40.81 minutes
	system time =      97.72 seconds =       1.63 minutes
	total time  =       2554 seconds =      42.57 minutes

*** tstart() called on atom
*** at Thu Jul 23 11:36:51 2020


         ------------------------------------------------------------
                                   SCF GRAD                          
                          Rob Parrish, Justin Turney,                
                       Andy Simmonett, and Alex Sokolov              
         ------------------------------------------------------------

  ==> Geometry <==

    Molecular point group: c1
    Full point group: C1

    Geometry (in Angstrom), charge = 0, multiplicity = 1:

       Center              X                  Y                   Z               Mass       
    ------------   -----------------  -----------------  -----------------  -----------------
         C            3.477323505403    -0.113742349998    -2.537487355697    12.000000000000
         C            3.194161940503     1.226464783202    -2.629083955797    12.000000000000
         C            2.734228038103     1.948556284302    -1.468170317597    12.000000000000
         C            1.685107747803     2.920389247702    -1.531043577397    12.000000000000
         C            1.000290407103     3.241748328202    -2.760379827897    12.000000000000
         C           -0.361816754297     3.415445331202    -2.766342800197    12.000000000000
         C           -1.116023332997     3.277327984402    -1.543122636997    12.000000000000
         C           -2.370497596097     2.590690170902    -1.489759245197    12.000000000000
         C           -2.973372802797     1.988817033202    -2.655509277297    12.000000000000
         C           -3.549631307397     0.745868001102    -2.568163561497    12.000000000000
         C           -3.553509224997     0.036084798802    -1.310775679297    12.000000000000
         C           -3.266262230297    -1.363013837898    -1.220089091097    12.000000000000
         C           -2.957437456597    -2.164643342898    -2.379916248697    12.000000000000
         C           -1.945079746497    -3.090992324098    -2.328134435897    12.000000000000
         C           -1.187175842097    -3.270570636498    -1.113547711297    12.000000000000
         C            0.233873236703    -3.446034555098    -1.114473646697    12.000000000000
         C            1.016966779103    -3.451396042598    -2.326065007097    12.000000000000
         C            2.223996546303    -2.798479957498    -2.363560288197    12.000000000000
         C            2.710659930903    -2.101351842698    -1.196221986397    12.000000000000
         C            3.309947305003    -0.805363442598    -1.281611346097    12.000000000000
         C            3.353071571103    -0.016516044398    -0.088561724197    12.000000000000
         C            3.061040484703     1.393910096102    -0.187143244197    12.000000000000
         C            2.742246242203     2.118911226202     1.006152982003    12.000000000000
         C            1.695194660203     3.090782760902     0.945391116103    12.000000000000
         C            1.029691521803     3.283096806402    -0.309217310197    12.000000000000
         C           -0.401932293297     3.467108263502    -0.315134243797    12.000000000000
         C           -1.104207327297     3.447255849102     0.934290130303    12.000000000000
         C           -2.357146193897     2.758577883702     0.987395582003    12.000000000000
         C           -3.132448737947     1.478771422952     0.340029427738    12.000000000000
         C           -3.132448737947     1.478771422952    -0.672187449032    12.000000000000
         C           -3.532914611997     0.200958778202     1.166524086603    12.000000000000
         C           -3.240725691297    -1.196886105598     1.257941669203    12.000000000000
         C           -2.875054348597    -1.886999912998     0.055626849803    12.000000000000
         C           -1.812290063497    -2.861951395098     0.109853748603    12.000000000000
         C           -1.163325010897    -3.107500725698     1.364856471403    12.000000000000
         C            0.252629714703    -3.297761935298     1.360936965903    12.000000000000
         C            0.939279601203    -3.212810988398     0.109195651303    12.000000000000
         C            2.206982349503    -2.525091560798     0.075506474503    12.000000000000
         C            2.729970055603    -1.959913957498     1.290592018103    12.000000000000
         C            3.310659515003    -0.652378702598     1.201760851403    12.000000000000
         C            3.505197881203     0.220456517802     2.339717493103    12.000000000000
         C            3.221427378603     1.560599735202     2.245797458303    12.000000000000
         C            1.022288938403     3.577023895402     2.126066035303    12.000000000000
         C           -0.339458630797     3.751376578402     2.120502491803    12.000000000000
         C           -2.944998377297     2.317677542502     2.230546067303    12.000000000000
         C           -3.516130599797     1.072518497602     2.317811745903    12.000000000000
         C           -2.903001456397    -1.833404490198     2.508985847003    12.000000000000
         C           -1.891674579797    -2.760636366998     2.560997967003    12.000000000000
         C            1.074077538403    -3.224136842798     2.542427116403    12.000000000000
         C            2.299963531103    -2.595063245898     2.535422339003    12.000000000000
         H            3.695032231003    -0.681555245298    -3.447269088897     1.007825032070
         H            3.190340964203     1.710594343202    -3.610540833797     1.007825032070
         H            1.542636888703     3.211964979702    -3.710451730997     1.007825032070
         H           -0.886335809097     3.521206684102    -3.720981682197     1.007825032070
         H           -2.851534636897     2.458277332902    -3.636556336497     1.007825032070
         H           -3.880137087697     0.240460909402    -3.480842056197     1.007825032070
         H           -3.433345257697    -1.940820814598    -3.339603758497     1.007825032070
         H           -1.628153506397    -3.593413379098    -3.247333532897     1.007825032070
         H            0.593212720503    -3.855350780898    -3.250629960797     1.007825032070
         H            2.746531163703    -2.688242757798    -3.318706904897     1.007825032070
         H            3.766713508303    -0.195215453798     3.313262485703     1.007825032070
         H            3.245276239903     2.177519920402     3.149607076703     1.007825032070
         H            1.574155232603     3.675514527002     3.065990355203     1.007825032070
         H           -0.855800392097     3.987215478802     3.056132269003     1.007825032070
         H           -2.814771606897     2.915436377602     3.137959814503     1.007825032070
         H           -3.834820761997     0.693473418702     3.293744431003     1.007825032070
         H           -3.354021219997    -1.476880234498     3.440115408903     1.007825032070
         H           -1.546821951697    -3.128487662098     3.532425249803     1.007825032070
         H            0.683976798503    -3.602260527598     3.494863595703     1.007825032070
         C            3.103793886003    -2.526163270098     3.816151751303    12.000000000000
         H            4.186924444303    -2.467531759198     3.619173662403     1.007825032070
         H            2.919643958403    -3.428693639198     4.422876504503     1.007825032070
         H            2.829137327003    -1.657562901698     4.443035300303     1.007825032070

  Nuclear repulsion = 6336.021467447929354

  ==> Basis Set <==

  Basis Set: 6-31G(D)
    Blend: 6-31G(D)
    Number of shells: 350
    Number of basis function: 809
    Number of Cartesian functions: 809
    Spherical Harmonics?: false
    Max angular momentum: 2

  ==> DFJKGrad: Density-Fitted SCF Gradients <==

    Gradient:                    1
    J tasked:                  Yes
    K tasked:                   No
    wK tasked:                  No
    OpenMP threads:              1
    Integrals threads:           1
    Memory [MiB]:             2145
    Schwarz Cutoff:          0E+00
    Fitting Condition:       1E-12

   => Auxiliary Basis Set <=

  Basis Set: (6-31G(D) AUX)
    Blend: CC-PVDZ-JKFIT
    Number of shells: 1422
    Number of basis function: 4681
    Number of Cartesian functions: 4681
    Spherical Harmonics?: false
    Max angular momentum: 3

  ==> DFT Potential <==

   => Composite Functional: PBE <= 

    PBE GGA Exchange-Correlation Functional

    J.P. Perdew et. al., Phys. Rev. Lett., 77(18), 3865-3868, 1996


    Deriv               =              1
    GGA                 =           TRUE
    Meta                =          FALSE

    Exchange Hybrid     =          FALSE
    MP2 Hybrid          =          FALSE

   => Exchange Functionals <=

    1.0000     XC_GGA_X_PBE

   => Correlation Functionals <=

    1.0000     XC_GGA_C_PBE

   => Molecular Quadrature <=

    Radial Scheme          =       TREUTLER
    Pruning Scheme         =           FLAT
    Nuclear Scheme         =       TREUTLER

    BS radius alpha        =              1
    Pruning alpha          =              1
    Radial Points          =             75
    Spherical Points       =            302
    Total Points           =        1619771
    Total Blocks           =          11160
    Max Points             =            256
    Max Functions          =            538


  -Total Gradient:
     Atom            X                  Y                   Z
    ------   -----------------  -----------------  -----------------
       1       -0.000021658115     0.000207822470    -0.000015975619
       2        0.000081102643    -0.000214254651     0.000010798693
       3       -0.000215683006     0.000125272085     0.000089959046
       4       -0.000303921888     0.000583811991    -0.001144353781
       5        0.001592419641    -0.000464044637    -0.000962620031
       6        0.002696868804    -0.000455066938     0.004661268915
       7        0.008003562283     0.011220004580    -0.023264873291
       8        0.057897350195     0.073415830931     0.067741333421
       9       -0.021111464441    -0.047184763041     0.035709983988
      10        0.024500795221     0.051258998878     0.024809306783
      11       -0.015501928356    -0.082497503607     0.084468135050
      12       -0.004528466576    -0.017980039938    -0.021168430591
      13        0.001863914928    -0.000667684217     0.005102893479
      14        0.001593473509    -0.001234881747    -0.000679990119
      15       -0.000955146457    -0.000269407223    -0.001209964316
      16        0.000035838020     0.000029566585     0.000103884148
      17        0.000179840395     0.000079274272     0.000054375972
      18       -0.000123133302    -0.000113140814     0.000012604760
      19        0.000272955766     0.000436945460     0.000000827518
      20       -0.000138912629    -0.000485475113     0.000085227631
      21       -0.000055212729     0.000451966387    -0.000042543965
      22        0.000225448665    -0.000272578527     0.000128559912
      23        0.000023764935    -0.000042988518    -0.000101316627
      24       -0.000457235858     0.000862474857     0.001156455877
      25       -0.000992339514     0.000396567643     0.000074336256
      26       -0.002052877687     0.001326247182     0.000193828484
      27        0.009324650445     0.015412227738     0.020915234088
      28        0.053188886873     0.065770230434    -0.083586601022
      29       -0.052973611461     0.013332955551    -0.916557428165
      30       -0.049627641329     0.033589073395     0.913052143172
      31       -0.018536062460    -0.092044787882    -0.066807601598
      32       -0.004509390351    -0.012351370524     0.023028300784
      33       -0.002306208252     0.000703451517    -0.000695364647
      34       -0.000916105674     0.000479283652    -0.000170111577
      35       -0.000660238619    -0.000081141425     0.001083329473
      36       -0.000194263173     0.000073816444    -0.000053944091
      37        0.000381681460     0.000005174448    -0.000115160329
      38       -0.000420984130    -0.000260147843    -0.000019519687
      39        0.000223370961     0.000420699475    -0.000002200813
      40       -0.000142236580    -0.000477498110    -0.000009329252
      41        0.000016921536     0.000121647069     0.000023626723
      42        0.000046838972    -0.000191399860    -0.000037685586
      43        0.001836791246    -0.000458877411     0.000810621845
      44        0.001974143800    -0.001331515365    -0.004813563394
      45       -0.021733967936    -0.053063630908    -0.023944320414
      46        0.024113927334     0.046332760423    -0.034923895435
      47        0.002478266582    -0.001719872742    -0.004404124995
      48        0.001340723678    -0.000786784632     0.001067238724
      49        0.000157628137     0.000097057988    -0.000019107872
      50       -0.000052916456    -0.000132952188    -0.000070417991
      51        0.000022728489    -0.000015733783    -0.000021996956
      52       -0.000026597807     0.000021981765    -0.000005032319
      53        0.000516601506    -0.000270665007     0.000032066170
      54       -0.000023631523     0.000183976721    -0.000280666785
      55        0.001465953387     0.003055366322     0.007950026836
      56       -0.000297039292    -0.002385693181     0.008991407906
      57       -0.000133756433    -0.000177303303    -0.000285015321
      58        0.000541918482    -0.000173224594     0.000038510644
      59       -0.000031396311     0.000011542459    -0.000007734206
      60        0.000025253227    -0.000005213921    -0.000022047344
      61        0.000018546494     0.000012667184     0.000008983930
      62       -0.000030181838     0.000018782977     0.000006587123
      63        0.000488863325    -0.000236757142    -0.000028572360
      64        0.000040568372     0.000252630705     0.000272826974
      65        0.002313007852     0.001417993185    -0.008747373213
      66       -0.000652630017    -0.003333978344    -0.007748584470
      67       -0.000184649743    -0.000120976078     0.000278933803
      68        0.000494099472    -0.000274235937    -0.000015655801
      69       -0.000028914537    -0.000001706701     0.000012764922
      70       -0.000020082108    -0.000028282815     0.000057922335
      71       -0.000009678149     0.000021800554     0.000004215986
      72       -0.000003504253    -0.000009978403    -0.000014433873
      73        0.000009555093     0.000034748555    -0.000005749911


*** tstop() called on atom at Thu Jul 23 11:59:17 2020
Module time:
	user time   =    1342.74 seconds =      22.38 minutes
	system time =       2.72 seconds =       0.05 minutes
	total time  =       1346 seconds =      22.43 minutes
Total time:
	user time   =    3791.47 seconds =      63.19 minutes
	system time =     100.44 seconds =       1.67 minutes
	total time  =       3900 seconds =      65.00 minutes

			-----------------------------------------
			 OPTKING 2.0: for geometry optimizations 
			  - R.A. King,  Bethel University        
			-----------------------------------------

	Internal coordinates to be generated automatically.
	Detected frag 1 with atoms:  1 2 3 4 5 6 7 8 9 10 11 12 13 14 15 16 17 18 19 20
	 21 22 23 24 25 26 27 28 29 30 31 32 33 34 35 36 37 38 39 40
	 41 42 43 44 45 46 47 48 49 50 51 52 53 54 55 56 57 58 59 60
	 61 62 63 64 65 66 67 68 69 70 71 72 73
	---Fragment 1 Bond Connectivity---
	 1 : 2 20 51
	 2 : 1 3 52
	 3 : 2 4 22
	 4 : 3 5 25
	 5 : 4 6 53
	 6 : 5 7 54
	 7 : 6 8 26
	 8 : 7 9 30
	 9 : 8 10 55
	 10 : 9 11 56
	 11 : 10 12 30
	 12 : 11 13 33
	 13 : 12 14 57
	 14 : 13 15 58
	 15 : 14 16 34
	 16 : 15 17 37
	 17 : 16 18 59
	 18 : 17 19 60
	 19 : 18 20 38
	 20 : 1 19 21
	 21 : 20 22 40
	 22 : 3 21 23
	 23 : 22 24 42
	 24 : 23 25 43
	 25 : 4 24 26
	 26 : 7 25 27
	 27 : 26 28 44
	 28 : 27 29 45
	 29 : 28 30 31
	 30 : 8 11 29
	 31 : 29 32 46
	 32 : 31 33 47
	 33 : 12 32 34
	 34 : 15 33 35
	 35 : 34 36 48
	 36 : 35 37 49
	 37 : 16 36 38
	 38 : 19 37 39
	 39 : 38 40 50
	 40 : 21 39 41
	 41 : 40 42 61
	 42 : 23 41 62
	 43 : 24 44 63
	 44 : 27 43 64
	 45 : 28 46 65
	 46 : 31 45 66
	 47 : 32 48 67
	 48 : 35 47 68
	 49 : 36 50 69
	 50 : 39 49 70
	 51 : 1
	 52 : 2
	 53 : 5
	 54 : 6
	 55 : 9
	 56 : 10
	 57 : 13
	 58 : 14
	 59 : 17
	 60 : 18
	 61 : 41
	 62 : 42
	 63 : 43
	 64 : 44
	 65 : 45
	 66 : 46
	 67 : 47
	 68 : 48
	 69 : 49
	 70 : 50 71 72 73
	 71 : 70
	 72 : 70
	 73 : 70

	---Fragment 1 Geometry and Gradient---
	 C           6.5711890748       -0.2149418904       -4.7951561491
	 C           6.0360912679        2.3176825428       -4.9682486373
	 C           5.1669421566        3.6822377174       -2.7744398058
	 C           3.1843921352        5.5187358579       -2.8932530474
	 C           1.8902749153        6.1260165080       -5.2163618770
	 C          -0.6837345732        6.4542562724       -5.2276302615
	 C          -2.1089784490        6.1932523138       -2.9160791619
	 C          -4.4795912377        4.8956948989       -2.8152369663
	 C          -5.6188602662        3.7583195064       -5.0181852577
	 C          -6.7078310173        1.4094862478       -4.8531257766
	 C          -6.7151592195        0.0681903870       -2.4770070458
	 C          -6.1723410692       -2.5757228588       -2.3056342308
	 C          -5.5887468261       -4.0905830774       -4.4973899116
	 C          -3.6756680131       -5.8411289484       -4.3995364671
	 C          -2.2434372043       -6.1804827769       -2.1043002020
	 C           0.4419563654       -6.5120615280       -2.1060499663
	 C           1.9217886912       -6.5221932710       -4.3956258134
	 C           4.2027443765       -5.2883606873       -4.4664816257
	 C           5.1224048887       -3.9709794759       -2.2605319395
	 C           6.2548938962       -1.5219163380       -2.4218944434
	 C           6.3363869484       -0.0312108006       -0.1673574039
	 C           5.7845281750        2.6341083251       -0.3536494778
	 C           5.1820943663        4.0041619017        1.9013535763
	 C           3.2034536371        5.8407329314        1.7865302909
	 C           1.9458349699        6.2041538075       -0.5843360295
	 C          -0.7595419553        6.5518850653       -0.5955174135
	 C          -2.0866494343        6.5143694392        1.7655524680
	 C          -4.4543607441        5.2129566959        1.8659072275
	 C          -5.9194702168        2.7944729915        0.6425624930
	 C          -5.9194702168        2.7944729915       -1.2702501836
	 C          -6.6762410413        0.3797570533        2.2044110424
	 C          -6.1240840043       -2.2617869429        2.3771652366
	 C          -5.4330653147       -3.5659130343        0.1051195114
	 C          -3.4247318799       -5.4083043211        0.2075934987
	 C          -2.1983656655       -5.8723253062        2.5792049315
	 C           0.4774009719       -6.2318668847        2.5717981396
	 C           1.7749812015       -6.0713328609        0.2063498751
	 C           4.1705922043       -4.7717314916        0.1426865575
	 C           5.1588957358       -3.7037006091        2.4388654539
	 C           6.2562397780       -1.2328170780        2.2709988774
	 C           6.6238640110        0.4166024412        4.4214252729
	 C           6.0876154786        2.9491060910        4.2439421294
	 C           1.9318461147        6.7595955065        4.0176825314
	 C          -0.6414838431        7.0890743266        4.0071689579
	 C          -5.5652403730        4.3797758025        4.2151211774
	 C          -6.6445238550        2.0267662250        4.3800294101
	 C          -5.4858776944       -3.4646323637        4.7412961035
	 C          -3.5747468743       -5.2168466656        4.8395847655
	 C           2.0297123851       -6.0927356239        4.8044909439
	 C           4.3463011723       -4.9039588130        4.7912538331
	 H           6.9825989413       -1.2879527530       -6.5143944588
	 H           6.0288706692        3.2325548204       -6.8229333407
	 H           2.9151612307        6.0697341362       -7.0117375733
	 H          -1.6749319344        6.6541162641       -7.0316362972
	 H          -5.3886195010        4.6454708996       -6.8720955158
	 H          -7.3323964250        0.4544052626       -6.5778381722
	 H          -6.4880822312       -3.6676197982       -6.3109364711
	 H          -3.0767642173       -6.7905671421       -6.1365710152
	 H           1.1210095759       -7.2855570935       -6.1428003611
	 H           5.1901916944       -5.0800425710       -6.2714471409
	 H           7.1180569238       -0.3689037431        6.2611586797
	 H           6.1326832949        4.1149162823        5.9518947778
	 H           2.9747222686        6.9457158262        5.7938820746
	 H          -1.6172283591        7.5347452581        5.7752529916
	 H          -5.3191474427        5.5093762899        5.9298846421
	 H          -7.2467609804        1.3104748366        6.2242749018
	 H          -6.3381815248       -2.7908991633        6.5008759628
	 H          -2.9230698536       -5.9119848682        6.6753162808
	 H           1.2925288253       -6.8072858297        6.6043350417
	 C           5.8653203944       -4.7737567287        7.2114816631
	 H           7.9121405077       -4.6629592308        6.8392470224
	 H           5.5173274652       -6.4792919462        8.3580252802
	 H           5.3462947193       -3.1323399199        8.3961198833
	            -0.0000216581        0.0002078225       -0.0000159756
	             0.0000811026       -0.0002142547        0.0000107987
	            -0.0002156830        0.0001252721        0.0000899590
	            -0.0003039219        0.0005838120       -0.0011443538
	             0.0015924196       -0.0004640446       -0.0009626200
	             0.0026968688       -0.0004550669        0.0046612689
	             0.0080035623        0.0112200046       -0.0232648733
	             0.0578973502        0.0734158309        0.0677413334
	            -0.0211114644       -0.0471847630        0.0357099840
	             0.0245007952        0.0512589989        0.0248093068
	            -0.0155019284       -0.0824975036        0.0844681350
	            -0.0045284666       -0.0179800399       -0.0211684306
	             0.0018639149       -0.0006676842        0.0051028935
	             0.0015934735       -0.0012348817       -0.0006799901
	            -0.0009551465       -0.0002694072       -0.0012099643
	             0.0000358380        0.0000295666        0.0001038841
	             0.0001798404        0.0000792743        0.0000543760
	            -0.0001231333       -0.0001131408        0.0000126048
	             0.0002729558        0.0004369455        0.0000008275
	            -0.0001389126       -0.0004854751        0.0000852276
	            -0.0000552127        0.0004519664       -0.0000425440
	             0.0002254487       -0.0002725785        0.0001285599
	             0.0000237649       -0.0000429885       -0.0001013166
	            -0.0004572359        0.0008624749        0.0011564559
	            -0.0009923395        0.0003965676        0.0000743363
	            -0.0020528777        0.0013262472        0.0001938285
	             0.0093246504        0.0154122277        0.0209152341
	             0.0531888869        0.0657702304       -0.0835866010
	            -0.0529736115        0.0133329556       -0.9165574282
	            -0.0496276413        0.0335890734        0.9130521432
	            -0.0185360625       -0.0920447879       -0.0668076016
	            -0.0045093904       -0.0123513705        0.0230283008
	            -0.0023062083        0.0007034515       -0.0006953646
	            -0.0009161057        0.0004792837       -0.0001701116
	            -0.0006602386       -0.0000811414        0.0010833295
	            -0.0001942632        0.0000738164       -0.0000539441
	             0.0003816815        0.0000051744       -0.0001151603
	            -0.0004209841       -0.0002601478       -0.0000195197
	             0.0002233710        0.0004206995       -0.0000022008
	            -0.0001422366       -0.0004774981       -0.0000093293
	             0.0000169215        0.0001216471        0.0000236267
	             0.0000468390       -0.0001913999       -0.0000376856
	             0.0018367912       -0.0004588774        0.0008106218
	             0.0019741438       -0.0013315154       -0.0048135634
	            -0.0217339679       -0.0530636309       -0.0239443204
	             0.0241139273        0.0463327604       -0.0349238954
	             0.0024782666       -0.0017198727       -0.0044041250
	             0.0013407237       -0.0007867846        0.0010672387
	             0.0001576281        0.0000970580       -0.0000191079
	            -0.0000529165       -0.0001329522       -0.0000704180
	             0.0000227285       -0.0000157338       -0.0000219970
	            -0.0000265978        0.0000219818       -0.0000050323
	             0.0005166015       -0.0002706650        0.0000320662
	            -0.0000236315        0.0001839767       -0.0002806668
	             0.0014659534        0.0030553663        0.0079500268
	            -0.0002970393       -0.0023856932        0.0089914079
	            -0.0001337564       -0.0001773033       -0.0002850153
	             0.0005419185       -0.0001732246        0.0000385106
	            -0.0000313963        0.0000115425       -0.0000077342
	             0.0000252532       -0.0000052139       -0.0000220473
	             0.0000185465        0.0000126672        0.0000089839
	            -0.0000301818        0.0000187830        0.0000065871
	             0.0004888633       -0.0002367571       -0.0000285724
	             0.0000405684        0.0002526307        0.0002728270
	             0.0023130079        0.0014179932       -0.0087473732
	            -0.0006526300       -0.0033339783       -0.0077485845
	            -0.0001846497       -0.0001209761        0.0002789338
	             0.0004940995       -0.0002742359       -0.0000156558
	            -0.0000289145       -0.0000017067        0.0000127649
	            -0.0000200821       -0.0000282828        0.0000579223
	            -0.0000096781        0.0000218006        0.0000042160
	            -0.0000035043       -0.0000099784       -0.0000144339
	             0.0000095551        0.0000347486       -0.0000057499

	Previous optimization step data not found.  Starting new optimization.

	---Fragment 1 Intrafragment Coordinates---
	 - Coordinate -           - BOHR/RAD -       - ANG/DEG -
	 R(1,2)           =         2.594316	       1.372853
	 R(1,20)          =         2.727746	       1.443461
	 R(1,51)          =         2.067944	       1.094309
	 R(2,3)           =         2.725844	       1.442455
	 R(2,52)          =         2.068066	       1.094374
	 R(3,4)           =         2.705059	       1.431456
	 R(3,22)          =         2.709283	       1.433691
	 R(4,5)           =         2.727703	       1.443438
	 R(4,25)          =         2.708306	       1.433174
	 R(5,6)           =         2.594878	       1.373150
	 R(5,53)          =         2.068075	       1.094378
	 R(6,7)           =         2.728133	       1.443666
	 R(6,54)          =         2.068056	       1.094368
	 R(7,8)           =         2.704372	       1.431092
	 R(7,26)          =         2.708247	       1.433143
	 R(8,9)           =         2.728468	       1.443843
	 R(8,30)          =         2.979156	       1.576501
	 R(9,10)          =         2.594247	       1.372817
	 R(9,55)          =         2.068099	       1.094391
	 R(10,11)         =         2.728565	       1.443895
	 R(10,56)         =         2.068065	       1.094373
	 R(11,12)         =         2.704496	       1.431158
	 R(11,30)         =         3.085774	       1.632921
	 R(12,13)         =         2.727485	       1.443323
	 R(12,33)         =         2.709011	       1.433547
	 R(13,14)         =         2.594968	       1.373198
	 R(13,57)         =         2.068007	       1.094342
	 R(14,15)         =         2.726638	       1.442875
	 R(14,58)         =         2.068189	       1.094439
	 R(15,16)         =         2.705788	       1.431841
	 R(15,34)         =         2.708610	       1.433335
	 R(16,17)         =         2.726200	       1.442643
	 R(16,37)         =         2.705252	       1.431558
	 R(17,18)         =         2.594248	       1.372817
	 R(17,59)         =         2.067992	       1.094334
	 R(18,19)         =         2.729008	       1.444129
	 R(18,60)         =         2.067934	       1.094303
	 R(19,20)         =         2.703050	       1.430392
	 R(19,38)         =         2.706032	       1.431971
	 R(20,21)         =         2.704031	       1.430911
	 R(21,22)         =         2.728219	       1.443711
	 R(21,40)         =         2.719534	       1.439115
	 R(22,23)         =         2.706476	       1.432205
	 R(23,24)         =         2.702073	       1.429875
	 R(23,42)         =         2.724120	       1.441542
	 R(24,25)         =         2.708263	       1.433151
	 R(24,43)         =         2.727514	       1.443338
	 R(25,26)         =         2.727656	       1.443413
	 R(26,27)         =         2.708740	       1.433403
	 R(27,28)         =         2.703665	       1.430718
	 R(27,44)         =         2.728302	       1.443755
	 R(28,29)         =         3.080938	       1.630362
	 R(28,45)         =         2.728928	       1.444087
	 R(29,30)         =         1.912813	       1.012217
	 R(29,31)         =         2.973706	       1.573617
	 R(31,32)         =         2.704159	       1.430979
	 R(31,46)         =         2.728912	       1.444078
	 R(32,33)         =         2.709325	       1.433713
	 R(32,47)         =         2.728234	       1.443719
	 R(33,34)         =         2.727326	       1.443239
	 R(34,35)         =         2.709950	       1.434044
	 R(35,36)         =         2.699824	       1.428686
	 R(35,48)         =         2.726425	       1.442762
	 R(36,37)         =         2.702745	       1.430231
	 R(36,49)         =         2.722856	       1.440873
	 R(37,38)         =         2.726164	       1.442624
	 R(38,39)         =         2.718432	       1.438532
	 R(39,40)         =         2.708802	       1.433436
	 R(39,50)         =         2.763089	       1.462164
	 R(40,41)         =         2.734971	       1.447284
	 R(41,42)         =         2.594733	       1.373073
	 R(41,61)         =         2.060550	       1.090396
	 R(42,62)         =         2.068392	       1.094546
	 R(43,44)         =         2.594358	       1.372875
	 R(43,63)         =         2.068119	       1.094401
	 R(44,64)         =         2.068048	       1.094364
	 R(45,46)         =         2.593974	       1.372672
	 R(45,65)         =         2.068084	       1.094383
	 R(46,66)         =         2.068092	       1.094387
	 R(47,48)         =         2.594675	       1.373043
	 R(47,67)         =         2.067960	       1.094317
	 R(48,68)         =         2.068287	       1.094490
	 R(49,50)         =         2.603834	       1.377889
	 R(49,69)         =         2.072067	       1.096490
	 R(50,70)         =         2.860398	       1.513657
	 R(70,71)         =         2.083340	       1.102456
	 R(70,72)         =         2.084349	       1.102990
	 R(70,73)         =         2.089738	       1.105842
	 B(1,2,3)         =         2.095277	     120.050554
	 B(1,2,52)        =         2.085661	     119.499553
	 B(1,20,19)       =         2.134877	     122.319446
	 B(1,20,21)       =         2.046289	     117.243717
	 B(2,1,20)        =         2.096567	     120.124447
	 B(2,1,51)        =         2.085302	     119.478992
	 B(2,3,4)         =         2.139100	     122.561419
	 B(2,3,22)        =         2.040666	     116.921562
	 B(3,2,52)        =         2.093482	     119.947676
	 B(3,4,5)         =         2.136811	     122.430235
	 B(3,4,25)        =         2.059571	     118.004710
	 B(3,22,21)       =         2.077238	     119.016975
	 B(3,22,23)       =         2.091962	     119.860581
	 B(4,3,22)        =         2.058910	     117.966847
	 B(4,5,6)         =         2.097261	     120.164203
	 B(4,5,53)        =         2.092309	     119.880491
	 B(4,25,24)       =         2.094396	     120.000039
	 B(4,25,26)       =         2.074134	     118.839101
	 B(5,4,25)        =         2.040661	     116.921274
	 B(5,6,7)         =         2.097217	     120.161671
	 B(5,6,54)        =         2.084548	     119.435780
	 B(6,5,53)        =         2.084335	     119.423571
	 B(6,7,8)         =         2.135834	     122.374256
	 B(6,7,26)        =         2.040961	     116.938448
	 B(7,6,54)        =         2.092054	     119.865855
	 B(7,8,9)         =         2.136391	     122.406164
	 B(7,8,30)        =         2.467724	     141.390190
	 B(7,26,25)       =         2.072398	     118.739646
	 B(7,26,27)       =         2.095456	     120.060785
	 B(8,7,26)        =         2.058231	     117.927963
	 B(8,9,10)        =         2.095922	     120.087503
	 B(8,9,55)        =         2.092630	     119.898840
	 B(8,30,11)       =         2.147135	     123.021778
	 B(8,30,29)       =         2.116008	     121.238312
	 B(9,8,30)        =         1.493613	      85.577740
	 B(9,10,11)       =         2.096252	     120.106370
	 B(9,10,56)       =         2.085003	     119.461857
	 B(10,9,55)       =         2.085362	     119.482465
	 B(10,11,12)      =         2.135548	     122.357870
	 B(10,11,30)      =         1.476212	      84.580739
	 B(11,10,56)      =         2.092569	     119.895386
	 B(11,12,13)      =         2.135292	     122.343215
	 B(11,12,33)      =         2.058379	     117.936423
	 B(11,30,29)      =         1.972591	     113.021161
	 B(12,11,30)      =         2.477010	     141.922241
	 B(12,13,14)      =         2.096837	     120.139893
	 B(12,13,57)      =         2.092154	     119.871578
	 B(12,33,32)      =         2.095239	     120.048336
	 B(12,33,34)      =         2.072942	     118.770815
	 B(13,12,33)      =         2.041717	     116.981789
	 B(13,14,15)      =         2.097802	     120.195176
	 B(13,14,58)      =         2.084605	     119.439057
	 B(14,13,57)      =         2.084776	     119.448866
	 B(14,15,16)      =         2.136514	     122.413233
	 B(14,15,34)      =         2.041961	     116.995756
	 B(15,14,58)      =         2.091804	     119.851566
	 B(15,16,17)      =         2.140908	     122.664989
	 B(15,16,37)      =         2.058415	     117.938477
	 B(15,34,33)      =         2.073349	     118.794139
	 B(15,34,35)      =         2.095309	     120.052356
	 B(16,15,34)      =         2.058191	     117.925678
	 B(16,17,18)      =         2.092591	     119.896612
	 B(16,17,59)      =         2.095240	     120.048416
	 B(16,37,36)      =         2.096544	     120.123136
	 B(16,37,38)      =         2.083701	     119.387245
	 B(17,16,37)      =         2.038693	     116.808522
	 B(17,18,19)      =         2.098799	     120.252328
	 B(17,18,60)      =         2.084710	     119.445102
	 B(18,17,59)      =         2.086271	     119.534514
	 B(18,19,20)      =         2.129761	     122.026306
	 B(18,19,38)      =         2.044852	     117.161363
	 B(19,18,60)      =         2.089779	     119.735512
	 B(19,20,21)      =         2.051432	     117.538393
	 B(19,38,37)      =         2.061101	     118.092363
	 B(19,38,39)      =         2.101352	     120.398596
	 B(20,1,51)       =         2.091842	     119.853729
	 B(20,19,38)      =         2.058379	     117.936412
	 B(20,21,22)      =         2.066387	     118.395249
	 B(20,21,40)      =         2.097970	     120.204808
	 B(21,22,23)      =         2.074502	     118.860212
	 B(21,40,39)      =         2.060696	     118.069179
	 B(21,40,41)      =         2.020331	     115.756434
	 B(22,21,40)      =         2.079354	     119.138219
	 B(22,23,24)      =         2.061966	     118.141924
	 B(22,23,42)      =         2.033586	     116.515914
	 B(23,24,25)      =         2.058328	     117.933496
	 B(23,24,43)      =         2.136028	     122.385363
	 B(23,42,41)      =         2.100795	     120.366699
	 B(23,42,62)      =         2.093283	     119.936268
	 B(24,23,42)      =         2.145040	     122.901730
	 B(24,25,26)      =         2.072895	     118.768143
	 B(24,43,44)      =         2.096596	     120.126110
	 B(24,43,63)      =         2.091828	     119.852906
	 B(25,24,43)      =         2.042504	     117.026851
	 B(25,26,27)      =         2.072129	     118.724264
	 B(26,27,28)      =         2.057910	     117.909558
	 B(26,27,44)      =         2.041740	     116.983069
	 B(27,28,29)      =         2.464766	     141.220694
	 B(27,28,45)      =         2.135789	     122.371691
	 B(27,44,43)      =         2.096681	     120.130996
	 B(27,44,64)      =         2.091993	     119.862360
	 B(28,27,44)      =         2.135035	     122.328507
	 B(28,29,30)      =         1.979117	     113.395067
	 B(28,29,31)      =         2.153034	     123.359762
	 B(28,45,46)      =         2.095612	     120.069715
	 B(28,45,65)      =         2.092755	     119.906005
	 B(29,28,45)      =         1.479240	      84.754232
	 B(29,31,32)      =         2.457211	     140.787826
	 B(29,31,46)      =         1.496411	      85.738059
	 B(30,29,31)      =         2.123769	     121.683028
	 B(31,32,33)      =         2.058622	     117.950355
	 B(31,32,47)      =         2.133888	     122.262766
	 B(31,46,45)      =         2.096275	     120.107721
	 B(31,46,66)      =         2.092701	     119.902914
	 B(32,31,46)      =         2.136797	     122.429436
	 B(32,33,34)      =         2.073127	     118.781417
	 B(32,47,48)      =         2.097704	     120.189593
	 B(32,47,67)      =         2.091245	     119.819518
	 B(33,32,47)      =         2.042945	     117.052120
	 B(33,34,35)      =         2.073495	     118.802535
	 B(34,35,36)      =         2.058854	     117.963656
	 B(34,35,48)      =         2.044215	     117.124886
	 B(35,36,37)      =         2.060439	     118.054430
	 B(35,36,49)      =         2.160325	     123.777526
	 B(35,48,47)      =         2.097617	     120.184604
	 B(35,48,68)      =         2.089759	     119.734399
	 B(36,35,48)      =         2.134858	     122.318337
	 B(36,37,38)      =         2.060810	     118.075719
	 B(36,49,50)      =         2.125125	     121.760679
	 B(36,49,69)      =         2.084960	     119.459407
	 B(37,36,49)      =         2.027408	     116.161929
	 B(37,38,39)      =         2.079497	     119.146417
	 B(38,39,40)      =         2.041272	     116.956260
	 B(38,39,50)      =         2.028107	     116.201976
	 B(39,40,41)      =         2.160171	     123.768696
	 B(39,50,49)      =         2.053634	     117.664583
	 B(39,50,70)      =         2.146471	     122.983753
	 B(40,39,50)      =         2.175031	     124.620122
	 B(40,41,42)      =         2.102566	     120.468176
	 B(40,41,61)      =         2.099420	     120.287893
	 B(41,42,62)      =         2.081887	     119.283344
	 B(42,41,61)      =         2.074539	     118.862345
	 B(43,44,64)      =         2.085066	     119.465458
	 B(44,43,63)      =         2.085443	     119.487072
	 B(45,46,66)      =         2.085221	     119.474384
	 B(46,45,65)      =         2.085487	     119.489593
	 B(47,48,68)      =         2.085946	     119.515902
	 B(48,47,67)      =         2.084438	     119.429517
	 B(49,50,70)      =         2.081680	     119.271486
	 B(50,49,69)      =         2.069606	     118.579711
	 B(50,70,71)      =         1.953022	     111.899901
	 B(50,70,72)      =         1.917200	     109.847463
	 B(50,70,73)      =         1.964386	     112.551026
	 B(71,70,72)      =         1.881605	     107.807999
	 B(71,70,73)      =         1.879190	     107.669633
	 B(72,70,73)      =         1.864417	     106.823211
	 D(1,2,3,4)       =        -2.419289	    -138.615031
	 D(1,2,3,22)      =         0.399418	      22.884941
	 D(1,20,19,18)    =        -0.008433	      -0.483155
	 D(1,20,19,38)    =        -2.805300	    -160.731864
	 D(1,20,21,22)    =         0.395440	      22.657045
	 D(1,20,21,40)    =        -3.046753	    -174.566084
	 D(2,1,20,19)     =         2.389413	     136.903304
	 D(2,1,20,21)     =        -0.407284	     -23.335665
	 D(2,3,4,5)       =         0.010006	       0.573279
	 D(2,3,4,25)      =         2.819799	     161.562589
	 D(2,3,22,21)     =        -0.399781	     -22.905743
	 D(2,3,22,23)     =         3.043248	     174.365240
	 D(3,2,1,20)      =         0.004968	       0.284672
	 D(3,2,1,51)      =         2.998893	     171.823935
	 D(3,4,5,6)       =         2.411226	     138.153079
	 D(3,4,5,53)      =        -0.583575	     -33.436402
	 D(3,4,25,24)     =         0.398663	      22.841730
	 D(3,4,25,26)     =        -2.432862	    -139.392725
	 D(3,22,21,20)    =         0.005019	       0.287580
	 D(3,22,21,40)    =        -2.839242	    -162.676582
	 D(3,22,23,24)    =         0.405591	      23.238666
	 D(3,22,23,42)    =        -3.036076	    -173.954364
	 D(4,3,2,52)      =         0.579730	      33.216081
	 D(4,3,22,21)     =         2.434194	     139.469031
	 D(4,3,22,23)     =        -0.405963	     -23.259987
	 D(4,5,6,7)       =        -0.000179	      -0.010234
	 D(4,5,6,54)      =        -2.994953	    -171.598144
	 D(4,25,24,23)    =        -0.399453	     -22.886975
	 D(4,25,24,43)    =         3.056353	     175.116127
	 D(4,25,26,7)     =         0.002299	       0.131714
	 D(4,25,26,27)    =         2.832782	     162.306425
	 D(5,4,3,22)      =        -2.805514	    -160.744091
	 D(5,4,25,24)     =        -3.056398	    -175.118710
[...]
	  424 D(28,29,31,32)  =   -141.202361    -0.000000    -0.021469  -141.223830
	  425 D(28,29,31,46)  =     12.754737    -0.000000    -0.007891    12.746847
	  426 D(28,45,46,31)  =     -0.037770    -0.000000    -0.012921    -0.050691
	  427 D(28,45,46,66)  =    175.610943    -0.000000    -0.012821   175.598122
	  428 D(29,28,27,44)  =   -140.963362     0.000000     0.019039  -140.944323
	  429 D(29,28,45,46)  =      7.969580     0.000000     0.007601     7.977181
	  430 D(29,28,45,65)  =   -176.521028    -0.000000    -0.003220  -176.524248
	  431 D(29,31,32,33)  =    -21.847796     0.000000     0.014749   -21.833047
	  432 D(29,31,32,47)  =    140.769341     0.000000    -0.001835   140.767505
	  433 D(29,31,46,45)  =     -7.912485     0.000000     0.012357    -7.900128
	  434 D(29,31,46,66)  =    176.489526     0.000000     0.012146   176.501672
	  435 D(30,8,9,55)    =    176.598538    -0.000000     0.005590   176.604128
	  436 D(30,11,10,56)  =   -176.570145     0.000000     0.008511  -176.561633
	  437 D(30,11,12,33)  =     21.376872     0.000000     0.015970    21.392842
	  438 D(30,29,28,45)  =    160.939302    -0.000000    -0.009857   160.929445
	  439 D(30,29,31,32)  =     45.083197    -0.000000    -0.010058    45.073139
	  440 D(30,29,31,46)  =   -160.959704    -0.000000     0.003520  -160.956184
	  441 D(31,29,28,45)  =    -12.778334     0.000000     0.000479   -12.777855
	  442 D(31,32,33,34)  =    139.285573     0.000000    -0.008232   139.277341
	  443 D(31,32,47,48)  =   -136.604046     0.000000     0.005878  -136.598168
	  444 D(31,32,47,67)  =     30.783951    -0.000000     0.004476    30.788427
	  445 D(31,46,45,65)  =   -175.598759    -0.000000    -0.002184  -175.600943
	  446 D(32,31,46,45)  =    144.039302     0.000000     0.023011   144.062313
	  447 D(32,31,46,66)  =    -31.558687     0.000000     0.022800   -31.535887
	  448 D(32,33,34,35)  =     -2.506122    -0.000000    -0.004287    -2.510409
	  449 D(32,47,48,35)  =     -4.345914    -0.000000     0.005152    -4.340762
	  450 D(32,47,48,68)  =    168.096239    -0.000000    -0.000278   168.095961
	  451 D(33,12,13,57)  =    164.726406    -0.000000    -0.012973   164.713433
	  452 D(33,32,31,46)  =   -169.940128     0.000000     0.000920  -169.939208
	  453 D(33,32,47,48)  =     27.580182    -0.000000    -0.010479    27.569703
	  454 D(33,32,47,67)  =   -165.031822    -0.000000    -0.011881  -165.043703
	  455 D(33,34,35,36)  =   -138.448777     0.000000     0.001761  -138.447016
	  456 D(33,34,35,48)  =     25.459088    -0.000000    -0.001612    25.457476
	  457 D(34,15,14,58)  =   -164.867929     0.000000     0.007212  -164.860716
	  458 D(34,15,16,37)  =      2.817358    -0.000000    -0.001234     2.816123
	  459 D(34,33,32,47)  =    -23.399224     0.000000     0.009987   -23.389237
	  460 D(34,35,36,37)  =     -1.580669    -0.000000    -0.001041    -1.581710
	  461 D(34,35,36,49)  =    161.165505    -0.000000     0.000295   161.165801
	  462 D(34,35,48,47)  =    -22.130053     0.000000     0.000876   -22.129177
	  463 D(34,35,48,68)  =    165.468913     0.000000     0.006135   165.475047
	  464 D(35,36,37,38)  =    138.282566     0.000000     0.000531   138.283096
	  465 D(35,36,49,50)  =   -137.413492    -0.000000    -0.001159  -137.414650
	  466 D(35,36,49,69)  =     35.724324    -0.000000     0.004682    35.729006
	  467 D(35,48,47,67)  =   -171.664149     0.000000     0.007459  -171.656690
	  468 D(36,35,48,47)  =    140.781825    -0.000000    -0.001590   140.780234
	  469 D(36,35,48,68)  =    -31.619210     0.000000     0.003668   -31.615541
	  470 D(36,37,38,39)  =     -0.133997    -0.000000     0.000391    -0.133605
	  471 D(36,49,50,39)  =      1.498129     0.000000     0.000935     1.499064
	  472 D(36,49,50,70)  =    177.355470     0.000000    -0.000564   177.354906
	  473 D(37,16,17,59)  =    166.198476    -0.000000    -0.004349   166.194127
	  474 D(37,36,35,48)  =   -164.251800    -0.000000     0.001095  -164.250705
	  475 D(37,36,49,50)  =     25.606685    -0.000000     0.000069    25.606754
	  476 D(37,36,49,69)  =   -161.255499     0.000000     0.005909  -161.249590
	  477 D(37,38,39,40)  =   -135.381567    -0.000000     0.000261  -135.381306
	  478 D(37,38,39,50)  =     27.059438    -0.000000     0.000148    27.059586
	  479 D(38,19,18,60)  =   -165.717271     0.000000     0.001955  -165.715316
	  480 D(38,37,36,49)  =    -25.822526     0.000000    -0.000681   -25.823208
	  481 D(38,39,40,41)  =    158.996089    -0.000000    -0.001304   158.994785
	  482 D(38,39,50,49)  =    -27.793596     0.000000    -0.000809   -27.794405
	  483 D(38,39,50,70)  =    156.510757     0.000000     0.000538   156.511294
	  484 D(39,40,41,42)  =   -135.519685    -0.000000    -0.002988  -135.522674
	  485 D(39,40,41,61)  =     36.369318    -0.000000     0.000677    36.369995
	  486 D(39,50,49,69)  =   -171.717364    -0.000000    -0.004729  -171.722093
	  487 D(39,50,70,71)  =    -30.582882    -0.000000    -0.013945   -30.596827
	  488 D(39,50,70,72)  =   -150.338064    -0.000000    -0.013712  -150.351777
	  489 D(39,50,70,73)  =     90.827962    -0.000000    -0.014227    90.813735
	  490 D(40,39,50,49)  =    133.096611     0.000000    -0.000726   133.095885
	  491 D(40,39,50,70)  =    -42.599036     0.000000     0.000621   -42.598415
	  492 D(40,41,42,62)  =    170.636482     0.000000     0.005800   170.642282
	  493 D(41,40,39,50)  =     -1.817691    -0.000000    -0.001096    -1.818787
	  494 D(42,23,24,43)  =      3.437098    -0.000000    -0.003595     3.433503
	  495 D(44,27,28,45)  =      7.015847     0.000000     0.017235     7.033081
	  496 D(46,31,32,47)  =     -7.322991     0.000000    -0.015664    -7.338655
	  497 D(48,35,36,49)  =     -1.505626    -0.000000     0.002432    -1.503194
	  498 D(49,50,70,71)  =    153.781171    -0.000000    -0.012478   153.768693
	  499 D(49,50,70,72)  =     34.025988    -0.000000    -0.012246    34.013743
	  500 D(49,50,70,73)  =    -84.807986    -0.000000    -0.012760   -84.820746
	  501 D(51,1,2,52)    =      0.107683    -0.000000    -0.001654     0.106029
	  502 D(53,5,6,54)    =      1.013077     0.000000    -0.003020     1.010057
	  503 D(55,9,10,56)   =     -0.010364     0.000000     0.000330    -0.010034
	  504 D(57,13,14,58)  =     -1.016829     0.000000     0.005408    -1.011421
	  505 D(59,17,18,60)  =     -0.024968     0.000000     0.001269    -0.023699
	  506 D(61,41,42,62)  =     -1.375095     0.000000     0.002365    -1.372730
	  507 D(63,43,44,64)  =     -0.945551    -0.000000    -0.000080    -0.945631
	  508 D(65,45,46,66)  =      0.049955     0.000000    -0.002084     0.047870
	  509 D(67,47,48,68)  =      0.778004     0.000000     0.002029     0.780033
	  510 D(69,49,50,70)  =      4.139977    -0.000000    -0.006229     4.133748
	  511 R(8,45)         =      4.431420     0.000021    -0.000028     4.431392
	  512 R(9,28)         =      4.430423     0.000113     0.000002     4.430425
	  513 R(10,31)        =      4.430931     0.000150     0.000014     4.430945
	  514 R(11,46)        =      4.430439    -0.000025    -0.000057     4.430382
	  515 R(41,70)        =      3.145900    -0.000006    -0.000010     3.145890
	 ---------------------------------------------------------------------------
	Successfully symmetrized geometry.

  ==> Convergence Check <==

  Measures of convergence in internal coordinates in au.
  Criteria marked as inactive (o), active & met (*), and active & unmet ( ).
  ---------------------------------------------------------------------------------------------
   Step     Total Energy     Delta E     MAX Force     RMS Force      MAX Disp      RMS Disp   
  ---------------------------------------------------------------------------------------------
    Convergence Criteria    1.00e-06 *    3.00e-04 *             o    1.20e-03 *             o
  ---------------------------------------------------------------------------------------------
     13   -1954.17085274   -2.46e-07 *    7.14e-05 *    8.53e-06 o    5.10e-04 *    1.08e-04 o  ~
  ---------------------------------------------------------------------------------------------


  **** Optimization is complete! (in 13 steps) ****

  ==> Optimization Summary <==

  Measures of convergence in internal coordinates in au.
  --------------------------------------------------------------------------------------------------------------- ~
   Step         Total Energy             Delta E       MAX Force       RMS Force        MAX Disp        RMS Disp  ~
  --------------------------------------------------------------------------------------------------------------- ~
      1   -1953.683318617035  -1953.683318617035      0.61765712      0.03509095      0.25748969      0.02210539  ~
      2   -1953.909351970568     -0.226033353533      0.21076356      0.01379688      0.22729510      0.03148935  ~
      3   -1954.037888129516     -0.128536158949      0.09581662      0.00726244      0.26407667      0.03313964  ~
      4   -1954.113758083139     -0.075869953622      0.04908676      0.00404737      0.26210555      0.03262653  ~
      5   -1954.154735406577     -0.040977323439      0.02624486      0.00207597      0.19233383      0.02536555  ~
      6   -1954.167802687027     -0.013067280450      0.01734108      0.00104493      0.07772819      0.01333406  ~
      7   -1954.169619951713     -0.001817264686      0.01315201      0.00080554      0.02824834      0.00554691  ~
      8   -1954.170186549524     -0.000566597811      0.01013633      0.00060831      0.03951313      0.00843681  ~
      9   -1954.170641395953     -0.000454846428      0.00602977      0.00038338      0.01898051      0.00317381  ~
     10   -1954.170794100443     -0.000152704491      0.00229464      0.00017328      0.01224618      0.00225449  ~
     11   -1954.170848484532     -0.000054384089      0.00062944      0.00005414      0.00395538      0.00068217  ~
     12   -1954.170852491664     -0.000004007132      0.00017470      0.00001885      0.00125428      0.00022583  ~
     13   -1954.170852737972     -0.000000246308      0.00007139      0.00000853      0.00050981      0.00010768  ~
  --------------------------------------------------------------------------------------------------------------- ~

	Writing optimization data to binary file.
	Final energy is  -1954.1708527379724
	Final (previous) structure:
	Cartesian Geometry (in Angstrom)
	    C     3.5129101295  -0.1573880040  -2.5102641971
	    C     3.1936168738   1.1761769971  -2.6208620757
	    C     2.7021882685   1.8922282663  -1.4727219289
	    C     1.6118269335   2.8186819202  -1.5459170679
	    C     0.9574390048   3.1812227879  -2.7720343416
	    C    -0.4069328104   3.3335566412  -2.7952234109
	    C    -1.2044040642   3.0462805510  -1.6219578045
	    C    -2.4121863862   2.3098571431  -1.8301710163
	    C    -2.9959712520   1.9468644585  -3.0927648463
	    C    -3.5808473400   0.6877698266  -2.9899274904
	    C    -3.4001483281   0.1813315246  -1.6564459673
	    C    -3.1668910811  -1.1780187200  -1.2786613789
	    C    -2.9508149897  -2.1224216161  -2.3535095424
	    C    -1.9524279332  -3.0616405012  -2.2727263522
	    C    -1.1729195716  -3.1699343736  -1.0719215981
	    C     0.2408075841  -3.4044472349  -1.0627191334
	    C     1.0301419730  -3.4608530166  -2.2653311411
	    C     2.2573977912  -2.8403910452  -2.3045037158
	    C     2.7535982362  -2.1351192356  -1.1487566952
	    C     3.3552640448  -0.8383227581  -1.2495505963
	    C     3.3765507096  -0.0337633417  -0.0658132493
	    C     3.0414040715   1.3619978393  -0.1856256538
	    C     2.6938196477   2.0978370047   0.9924280504
	    C     1.6053810679   3.0230802253   0.9075489486
	    C     0.9030370396   3.1177831243  -0.3374335651
	    C    -0.5424764578   3.2106816251  -0.3481569451
	    C    -1.2095121045   3.2578966690   0.9331702705
	    C    -2.4156924127   2.5623466666   1.2561554412
	    C    -2.8372374300   1.3953419437   0.4938234781
	    C    -2.8365503328   1.2827314927  -0.8889716964
	    C    -3.3974128061   0.4312015067   1.4297637929
	    C    -3.1593887432  -0.9703754731   1.2769888770
	    C    -2.7778890282  -1.6177487625   0.0422942081
	    C    -1.7747624405  -2.6597938245   0.1239703173
	    C    -1.1661973352  -2.9723024306   1.3836904367
	    C     0.2424312136  -3.2188780297   1.4038581587
	    C     0.9462615960  -3.1714915340   0.1600817986
	    C     2.2325745345  -2.5264298735   0.1269975008
	    C     2.7552294745  -1.9553106444   1.3394781668
	    C     3.3401544901  -0.6479419231   1.2352599295
	    C     3.5108955479   0.2480648491   2.3563260217
	    C     3.1901456097   1.5811650077   2.2398087702
	    C     0.9465330660   3.5832039173   2.0545039811
	    C    -0.4174525915   3.7374277673   2.0461620886
	    C    -3.0001052926   2.4075916477   2.5609890137
	    C    -3.5803197131   1.1467776043   2.6637673875
	    C    -2.9325443658  -1.7257549111   2.4907668819
	    C    -1.9347247826  -2.6663247685   2.5572393763
	    C     1.0516377119  -3.1582836110   2.5906989682
	    C     2.2959481912  -2.5592079489   2.5860071998
	    H     3.7370180401  -0.7312804313  -3.4147623763
	    H     3.1667224373   1.6425187954  -3.6106613977
	    H     1.5215727967   3.2174827304  -3.7095070412
	    H    -0.9134011079   3.4726647862  -3.7544437433
	    H    -2.9276145695   2.5266130474  -4.0153515692
	    H    -4.0345558698   0.1440924899  -3.8208704480
	    H    -3.4482487936  -1.9515198305  -3.3122754797
	    H    -1.6787510322  -3.6380774644  -3.1623122378
	    H     0.5961071753  -3.8544038989  -3.1897585869
	    H     2.7811654368  -2.7504955394  -3.2611995336
	    H     3.7689495254  -0.1452582294   3.3402543236
	    H     3.1791094507   2.2087295364   3.1366487862
	    H     1.5076490916   3.7738488736   2.9749893933
	    H    -0.9284488912   4.0345713256   2.9662389785
	    H    -2.9346814653   3.1299533443   3.3769617411
	    H    -4.0337035141   0.7436598640   3.5714418196
	    H    -3.4207797736  -1.3979057858   3.4127113503
	    H    -1.6489261543  -3.0853995827   3.5274281401
	    H     0.6357724903  -3.4927484040   3.5485836032
	    C     3.0783785768  -2.4709702039   3.8783190821
	    H     4.1648201838  -2.4201376339   3.6988315973
	    H     2.8799231765  -3.3613150005   4.4984765069
	    H     2.7958452976  -1.5898383202   4.4840463030
	Saving final (previous) structure.
			--------------------------
			 OPTKING Finished Execution 
			--------------------------

    Final optimized geometry and variables:
    Molecular point group: c1
    Full point group: C1

    Geometry (in Angstrom), charge = 0, multiplicity = 1:

    C            3.512910143263    -0.157388004620    -2.510264206969
    C            3.193616886318     1.176177001690    -2.620862086010
    C            2.702188279106     1.892228273760    -1.472721934713
    C            1.611826939816     2.818681931312    -1.545917073979
    C            0.957439008551     3.181222800380    -2.772034352474
    C           -0.406932812031     3.333556654270    -2.795223421852
    C           -1.204404068894     3.046280562946    -1.621957810872
    C           -2.412186395682     2.309857152190    -1.830171023452
    C           -2.995971263798     1.946864466181    -3.092764858468
    C           -3.580847354078     0.687769829289    -2.989927502184
    C           -3.400148341448     0.181331525344    -1.656445973850
    C           -3.166891093530    -1.178018724599    -1.278661383902
    C           -2.950815001309    -2.122421624413    -2.353509551668
    C           -1.952427940907    -3.061640513258    -2.272726361107
    C           -1.172919576173    -3.169934386023    -1.071921602324
    C            0.240807585084    -3.404447248312    -1.062719137592
    C            1.030141977007    -3.460853030223    -2.265331150048
    C            2.257397800029    -2.840391056353    -2.304503724873
    C            2.753598247050    -2.135119243960    -1.148756699743
    C            3.355264058004    -0.838322761399    -1.249550601172
    C            3.376550722911    -0.033763341789    -0.065813249562
    C            3.041404083410     1.361997844657    -0.185625654549
    C            2.693819658280     2.097837012906     0.992428054269
    C            1.605381074176     3.023080237190     0.907548952165
    C            0.903037043166     3.117783136587    -0.337433566425
    C           -0.542476459968     3.210681637747    -0.348156946461
    C           -1.209512109208     3.257896681797     0.933170274126
    C           -2.415692422185     2.562346676646     1.256155446162
    C           -2.837237441150     1.395341949214     0.493823480070
    C           -2.836550343970     1.282731497716    -0.888971699906
    C           -3.397412819420     0.431201508399     1.429763798473
    C           -3.159388755634    -0.970375476948     1.276988882009
    C           -2.777889039100    -1.617748768824     0.042294208224
    C           -1.774762447524    -2.659793834940     0.123970317800
    C           -1.166197339816    -2.972302442275     1.383690442096
    C            0.242431214564    -3.218878042365     1.403858164176
    C            0.946261599750    -3.171491546422     0.160081799200
    C            2.232574543289    -2.526429883465     0.126997501334
    C            2.755229485293    -1.955310652120     1.339478172112
    C            3.340154503201    -0.647941925637     1.235259934362
    C            3.510895561720     0.248064850083     2.356326030943
    C            3.190145622195     1.581165013960     2.239808779019
    C            0.946533069744     3.583203931428     2.054503989128
    C           -0.417452593128     3.737427782011     2.046162096658
    C           -3.000105304346     2.407591657148     2.560989023722
    C           -3.580319727212     1.146777608788     2.663767397988
    C           -2.932544377373    -1.725754917878     2.490766891693
    C           -1.934724790165    -2.666324778943     2.557239386356
    C            1.051637716054    -3.158283623445     2.590698978418
    C            2.295948200202    -2.559207958915     2.586007209989
    H            3.737018054819    -0.731280434146    -3.414762389703
    H            3.166722449699     1.642518801862    -3.610661411930
    H            1.521572802720     3.217482743033    -3.709507055819
    H           -0.913401111474     3.472664799801    -3.754443758101
    H           -2.927614581030     2.526613057375    -4.015351584984
    H           -4.034555885664     0.144092490462    -3.820870463021
    H           -3.448248807119    -1.951519838131    -3.312275492754
    H           -1.678751038749    -3.638077478736    -3.162312250258
    H            0.596107177691    -3.854403914057    -3.189758599452
    H            2.781165447755    -2.750495550193    -3.261199546443
    H            3.768949540237    -0.145258229923     3.340254336745
    H            3.179109463176     2.208729545097     3.136648798492
    H            1.507649097506     3.773848888474     2.974989405007
    H           -0.928448894816     4.034571341460     2.966238990141
    H           -2.934681476813     3.129953356622     3.376961754385
    H           -4.033703529926     0.743659866955     3.571441833636
    H           -3.420779787042    -1.397905791279     3.412711363739
    H           -1.648926160817    -3.085399594865     3.527428153923
    H            0.635772492823    -3.492748417776     3.548583617154
    C            3.078378588883    -2.470970213648     3.878319097374
    H            4.164820200141    -2.420137643421     3.698831611797
    H            2.879923187844    -3.361315013667     4.498476524599
    H            2.795845308623    -1.589838326477     4.484046320656

	Cleaning optimization helper files.

    Psi4 stopped on: Friday, 24 July 2020 12:36AM
    Psi4 wall time for execution: 13:41:49.91

*** Psi4 exiting successfully. Buy a developer a beer!
Optimizer: Optimization complete!
