
    -----------------------------------------------------------------------
          Psi4: An Open-Source Ab Initio Electronic Structure Package
                               Psi4 1.3a2.dev49 

                         Git: Rev {master} f687f49 


    R. M. Parrish, L. A. Burns, D. G. A. Smith, A. C. Simmonett,
    A. E. DePrince III, E. G. Hohenstein, U. Bozkaya, A. Yu. Sokolov,
    R. Di Remigio, R. M. Richard, J. F. Gonthier, A. M. James,
    H. R. McAlexander, A. Kumar, M. Saitow, X. Wang, B. P. Pritchard,
    P. Verma, H. F. Schaefer III, K. Patkowski, R. A. King, E. F. Valeev,
    F. A. Evangelista, J. M. Turney, T. D. Crawford, and C. D. Sherrill,
    J. Chem. Theory Comput. 13(7) pp 3185--3197 (2017).
    (doi: 10.1021/acs.jctc.7b00174)


                         Additional Contributions by
    P. Kraus, H. Kruse, M. H. Lechner, M. C. Schieber, and R. A. Shaw

    -----------------------------------------------------------------------


    Psi4 started on: Saturday, 25 July 2020 10:44AM

    Process ID: 29775
    Host:       atom
    PSIDATADIR: /home/localadmin/miniconda/envs/p4env/share/psi4
    Memory:     500.0 MiB
    Threads:    1
    
  ==> Input File <==

--------------------------------------------------------------------------
import psi4 
psi4.set_memory(4e9) 
psi4.set_options({'geom_maxiter':100})
psi4.set_module_options('scf',{'maxiter':500})
cnt=psi4.geometry("""
C        4.2397717356     -8.7425403304      0.7774250588
C        3.3185141916     -7.8477029178      1.5560403113
C        2.5580157635     -8.4498617296      2.5757258716
C        2.3140214722     -8.8820858572      5.5243704709
C        2.8558744804     -8.5913185856      6.7809026099
C        5.0328337697     -7.1279153110      8.1815098938
C        6.1481212661     -6.3058641464      7.9909220318
C        7.8126929577     -4.9372679800      5.9411072341
C        7.9630000477     -4.7192050026      4.5678146584
C        6.8202227928     -5.3296304758      1.8913931405
C        5.8002930107     -6.0247313268      1.2320435061
C        4.4689380138     -5.5689842977      1.2928333178
C        3.3125393535     -6.4284593423      1.4591811035
C        2.1345614529     -5.7981050671      1.9153191882
C        1.3412847155     -6.4304082870      2.9020761597
C        1.7495889146     -7.6697500704      3.4169640111
C        1.6102979739     -7.8867257899      4.8255213964
C        1.0512837611     -6.8477703199      5.5938187631
C        1.5978967637     -6.5538781950      6.8643197527
C        2.6937690831     -7.3060622055      7.3294586628
C        3.7418891215     -6.6010296205      8.0030593405
C        3.6017628678     -5.2068251907      8.1515519206
C        4.7299492546     -4.3752715116      7.9584460255
C        5.9666997776     -4.9610618768      7.6233810388
C        6.7676678269     -4.3029063956      6.6360393538
C        6.2595733133     -3.1183520980      6.0684420619
C        6.4095115921     -2.9002554245      4.6791564013
C        7.0654920352     -3.8696086039      3.8978691295
C        6.5109235062     -4.1690260281      2.6128186345
C        5.3469126810     -3.4834017090      2.2233006292
C        4.3149840322     -4.1904224474      1.5569038686
C        3.0404861190     -3.5970487755      1.5186877173
C        1.9236807244     -4.4201216102      1.7066202190
C        0.7111255086     -3.8091585868      2.0902870846
C       -0.0721864429     -4.4448474793      3.0637728475
C        0.3968087535     -5.6564701623      3.6025920611
C        0.2453532000     -5.8714728145      4.9801634734
C       -0.3653000075     -4.8608500654      5.7474369997
C        0.1754109608     -4.5685349002      7.0082242046
C        1.3001014526     -5.3019102441      7.4358613211
C        2.3268485431     -4.6116181766      8.0956734743
C        2.1733602613     -3.2248768816      8.2937383387
C        3.2920031831     -2.4005560185      8.1017083648
C        4.5067510079     -3.0051012578      7.7221466874
C        5.2898766683     -2.3617214016      6.7529543928
C        4.8156407848     -1.1498570651      6.2129117637
C        4.9634302364     -0.9358582925      4.8343668155
C        5.5784540411     -1.9436786842      4.0672730573
C        5.0345521174     -2.2425771922      2.8092391379
C        3.9082668661     -1.5149992019      2.3822583055
C        2.8853984085     -2.2087910836      1.7192598602
C        1.6094405422     -1.6139845926      1.6667137723
C        0.4914018418     -2.4369267144      1.8582222899
C       -0.7263629819     -1.8324889456      2.2267603987
C       -1.5155507005     -2.4762498684      3.2084347146
C       -1.0340596790     -3.6806625629      3.7541089898
C       -1.1842793546     -3.8939751990      5.1323014948
C       -1.8073146079     -2.8918564870      5.8997247853
C       -1.2623779813     -2.5962642172      7.1715638560
C       -0.1307573414     -3.3225323885      7.5896741064
C        0.8955285073     -2.6324267630      8.2507061837
C        0.7398559110     -1.2492660340      8.4628175320
C        1.8680022756     -0.4181523619      8.2689773362
C        3.0753422256     -1.0264630355      7.8764285275
C        3.8574585929     -0.3844179818      6.9054309733
C        3.3942114688      0.8337400609      6.3725690608
C        3.5433084972      1.0487681312      4.9819967491
C        4.1459591072      0.0314781041      4.2182765648
C        3.6049792372     -0.2652347697      2.9585274380
C        2.4884720842      0.4715789627      2.5214655593
C        1.4557990549     -0.2261263299      1.8523324050
C        0.1830208476      0.3679651833      1.7475028647
C       -0.9587658985     -0.4725457746      1.9435740548
C       -2.2395953908      0.0244440618      2.2424972309
C       -3.0196416455     -0.6126004528      3.2129837927
C       -2.5149408981     -1.7434421922      3.8783460770
C       -2.6670797430     -1.9603570700      5.2856614376
C       -3.3351402562     -1.0629956417      6.1372223581
C       -2.7965470462     -0.7705367490      7.3945673951
C       -1.5922295277     -1.3764905748      7.7936446771
C       -0.5451258701     -0.6722898033      8.4698450333
C       -0.6219221064      0.6921066187      8.7999440721
C        0.4934935493      1.5137292641      8.6083009365
C        1.6789227430      0.9659637303      8.0878253970
C        2.4765566196      1.6204941404      7.0952354157
C        2.1502323492      2.8728349158      6.5457048623
C        2.2976462043      3.0852278580      5.1709904099
C        2.7711251246      2.0444526320      4.3527929539
C        2.2201726184      1.7430013836      3.0658415616
C        1.1530845762      2.4596677985      2.4967706201
C        0.1317475266      1.7702564082      1.8352716093
H        5.1383214980     -8.9752185475      1.3568774273
H        3.7357210271     -9.6862055325      0.5388594214
H        4.5136163869     -8.2905696180     -0.1808502320
H        2.7542766541     -9.4923382109      2.8163084108
H        2.6663791173     -9.7801728560      5.0237431923
H        3.5924028485     -9.2847748755      7.1783176074
H        5.2042233013     -8.2006297208      8.2163102391
H        7.1145270743     -6.7927748358      7.8896184003
H        8.3499107341     -5.7769008747      6.3742957758
H        8.6065398282     -5.4035831706      4.0212299633
H        7.7696014951     -5.8416999410      2.0241044677
H        6.0495132498     -7.0213633317      0.8910158498
H       -2.5443073657      1.0207446676      1.9329637721
H       -3.8808873199     -0.0709972293      3.5953234270
H       -4.1137171699     -0.4036810468      5.7625283773
H       -3.1909082870      0.0975277175      7.9163308327
H       -1.5795161473      1.1804748427      8.9604180492
H        0.3317070838      2.5882069909      8.6321001655
H        1.5580200808      3.5952395651      7.1013078801
H        1.8106992765      3.9591840315      4.7463132223
H        0.9637576125      3.4960320629      2.7638972904
H       -0.7863423665      2.3149227582      1.6309489492
""")
psi4.optimize('pbe/6-31G(d)',molecule=cnt)
--------------------------------------------------------------------------

  Memory set to   3.725 GiB by Python driver.
gradient() will perform analytic gradient computation.

*** tstart() called on atom
*** at Sat Jul 25 10:44:11 2020

   => Loading Basis Set <=

    Name: 6-31G(D)
    Role: ORBITAL
    Keyword: BASIS
    atoms 1-91   entry C          line   111 file /home/localadmin/miniconda/envs/p4env/share/psi4/basis/6-31g_d_.gbs 
    atoms 92-113 entry H          line    44 file /home/localadmin/miniconda/envs/p4env/share/psi4/basis/6-31g_d_.gbs 


         ---------------------------------------------------------
                                   SCF
            by Justin Turney, Rob Parrish, Andy Simmonett
                             and Daniel Smith
                              RKS Reference
                        1 Threads,   3814 MiB Core
         ---------------------------------------------------------

  ==> Geometry <==

    Molecular point group: c1
    Full point group: C1

    Geometry (in Angstrom), charge = 0, multiplicity = 1:

       Center              X                  Y                   Z               Mass       
    ------------   -----------------  -----------------  -----------------  -----------------
         C            1.967409398577    -5.756181395512    -4.110657546183    12.000000000000
         C            1.046151854577    -4.861343982912    -3.332042293683    12.000000000000
         C            0.285653426477    -5.463502794712    -2.312356733383    12.000000000000
         C            0.041659135177    -5.895726922312     0.636287865917    12.000000000000
         C            0.583512143377    -5.604959650712     1.892820004917    12.000000000000
         C            2.760471432677    -4.141556376112     3.293427288817    12.000000000000
         C            3.875758929077    -3.319505211512     3.102839426817    12.000000000000
         C            5.540330620677    -1.950909045112     1.053024629117    12.000000000000
         C            5.690637710677    -1.732846067712    -0.320267946583    12.000000000000
         C            4.547860455777    -2.343271540912    -2.996689464483    12.000000000000
         C            3.527930673677    -3.038372391912    -3.656039098883    12.000000000000
         C            2.196575676777    -2.582625362812    -3.595249287183    12.000000000000
         C            1.040177016477    -3.442100407412    -3.428901501483    12.000000000000
         C           -0.137800884123    -2.811746132212    -2.972763416783    12.000000000000
         C           -0.931077621523    -3.444049352112    -1.986006445283    12.000000000000
         C           -0.522773422423    -4.683391135512    -1.471118593883    12.000000000000
         C           -0.662064363123    -4.900366855012    -0.062561208583    12.000000000000
         C           -1.221078575923    -3.861411385012     0.705736158117    12.000000000000
         C           -0.674465573323    -3.567519260112     1.976237147717    12.000000000000
         C            0.421406746077    -4.319703270612     2.441376057817    12.000000000000
         C            1.469526784477    -3.614670685612     3.114976735517    12.000000000000
         C            1.329400530777    -2.220466255812     3.263469315617    12.000000000000
         C            2.457586917577    -1.388912576712     3.070363420517    12.000000000000
         C            3.694337440577    -1.974702941912     2.735298433817    12.000000000000
         C            4.495305489877    -1.316547460712     1.747956748817    12.000000000000
         C            3.987210976277    -0.131993163112     1.180359456917    12.000000000000
         C            4.137149255077     0.086103510388    -0.208926203683    12.000000000000
         C            4.793129698177    -0.883249669012    -0.990213475483    12.000000000000
         C            4.238561169177    -1.182667093212    -2.275263970483    12.000000000000
         C            3.074550343977    -0.497042774112    -2.664781975783    12.000000000000
         C            2.042621695177    -1.204063512512    -3.331178736383    12.000000000000
         C            0.768123781977    -0.610689840612    -3.369394887683    12.000000000000
         C           -0.348681612623    -1.433762675312    -3.181462385983    12.000000000000
         C           -1.561236828423    -0.822799651912    -2.797795520383    12.000000000000
         C           -2.344548779923    -1.458488544412    -1.824309757483    12.000000000000
         C           -1.875553583523    -2.670111227412    -1.285490543883    12.000000000000
         C           -2.027009137023    -2.885113879612     0.092080868417    12.000000000000
         C           -2.637662344523    -1.874491130512     0.859354394717    12.000000000000
         C           -2.096951376223    -1.582175965312     2.120141599617    12.000000000000
         C           -0.972260884423    -2.315551309212     2.547778716117    12.000000000000
         C            0.054486206077    -1.625259241712     3.207590869317    12.000000000000
         C           -0.099002075723    -0.238517946712     3.405655733717    12.000000000000
         C            1.019640846077     0.585802916388     3.213625759817    12.000000000000
         C            2.234388670877    -0.018742322912     2.834064082417    12.000000000000
         C            3.017514331277     0.624637533288     1.864871787817    12.000000000000
         C            2.543278447777     1.836501869788     1.324829158717    12.000000000000
         C            2.691067899377     2.050500642388    -0.053715789483    12.000000000000
         C            3.306091704077     1.042680250688    -0.820809547683    12.000000000000
         C            2.762189780377     0.743781742688    -2.078843467083    12.000000000000
         C            1.635904529077     1.471359732988    -2.505824299483    12.000000000000
         C            0.613036071477     0.777567851288    -3.168822744783    12.000000000000
         C           -0.662921794823     1.372374342288    -3.221368832683    12.000000000000
         C           -1.780960495223     0.549432220488    -3.029860315083    12.000000000000
         C           -2.998725318923     1.153869989288    -2.661322206283    12.000000000000
         C           -3.787913037523     0.510109066488    -1.679647890383    12.000000000000
         C           -3.306422016023    -0.694303628012    -1.133973615183    12.000000000000
         C           -3.456641691623    -0.907616264112     0.244218889817    12.000000000000
         C           -4.079676944923     0.094502447888     1.011642180317    12.000000000000
         C           -3.534740318323     0.390094717688     2.283481251017    12.000000000000
         C           -2.403119678423    -0.336173453612     2.701591501417    12.000000000000
         C           -1.376833829723     0.353932171888     3.362623578717    12.000000000000
         C           -1.532506426023     1.737092900888     3.574734927017    12.000000000000
         C           -0.404360061423     2.568206572988     3.380894731217    12.000000000000
         C            0.802979888577     1.959895899388     2.988345922517    12.000000000000
         C            1.585096255877     2.601940953088     2.017348368317    12.000000000000
         C            1.121849131777     3.820098995788     1.484486455817    12.000000000000
         C            1.270946160177     4.035127066088     0.093914144117    12.000000000000
         C            1.873596770177     3.017837038988    -0.669806040183    12.000000000000
         C            1.332616900177     2.721124165188    -1.929555166983    12.000000000000
         C            0.216109747177     3.457937897588    -2.366617045683    12.000000000000
         C           -0.816563282123     2.760232604988    -3.035750199983    12.000000000000
         C           -2.089341489423     3.354324118188    -3.140579740283    12.000000000000
         C           -3.231128235523     2.513813160288    -2.944508550183    12.000000000000
         C           -4.511957727823     3.010802996688    -2.645585374083    12.000000000000
         C           -5.292003982523     2.373758482088    -1.675098812283    12.000000000000
         C           -4.787303235123     1.242916742688    -1.009736527983    12.000000000000
         C           -4.939442080023     1.026001864888     0.397578832617    12.000000000000
         C           -5.607502593223     1.923363293188     1.249139753117    12.000000000000
         C           -5.068909383223     2.215822185888     2.506484790117    12.000000000000
         C           -3.864591864723     1.609868360088     2.905562072117    12.000000000000
         C           -2.817488207123     2.314069131588     3.581762428317    12.000000000000
         C           -2.894284443423     3.678465553588     3.911861467117    12.000000000000
         C           -1.778868787723     4.500088198988     3.720218331517    12.000000000000
         C           -0.593439594023     3.952322665188     3.199742792017    12.000000000000
         C            0.204194282577     4.606853075288     2.207152810717    12.000000000000
         C           -0.122129987823     5.859193850688     1.657622257317    12.000000000000
         C            0.025283867277     6.071586792888     0.282907804917    12.000000000000
         C            0.498762787577     5.030811566888    -0.535289651083    12.000000000000
         C           -0.052189718623     4.729360318488    -1.822241043383    12.000000000000
         C           -1.119277760823     5.446026733388    -2.391311984883    12.000000000000
         C           -2.140614810423     4.756615343088    -3.052810995683    12.000000000000
         H            2.865959160977    -5.988859612612    -3.531205177683     1.007825032070
         H            1.463358690077    -6.699846597612    -4.349223183583     1.007825032070
         H            2.241254049877    -5.304210683112    -5.068932836983     1.007825032070
         H            0.481914317077    -6.505979276012    -2.071774194183     1.007825032070
         H            0.394016780277    -6.793813921112     0.135660587317     1.007825032070
         H            1.320040511477    -6.298415940612     2.290235002417     1.007825032070
         H            2.931860964277    -5.214270785912     3.328227634117     1.007825032070
         H            4.842164737277    -3.806415900912     3.001535795317     1.007825032070
         H            6.077548397077    -2.790541939812     1.486213170817     1.007825032070
         H            6.334177491177    -2.417224235712    -0.866852641683     1.007825032070
         H            5.497239158077    -2.855341006112    -2.863978137283     1.007825032070
         H            3.777150912777    -4.035004396812    -3.997066755183     1.007825032070
         H           -4.816669702723     4.007103602488    -2.955118832883     1.007825032070
         H           -6.153249656923     2.915361705588    -1.292759177983     1.007825032070
         H           -6.386079506923     2.582677888088     0.874445772317     1.007825032070
         H           -5.463270624023     3.083886652388     3.028248227717     1.007825032070
         H           -3.851878484323     4.166833777588     4.072335444217     1.007825032070
         H           -1.940655253223     5.574565925788     3.744017560517     1.007825032070
         H           -0.714342256223     6.581598499988     2.213225275117     1.007825032070
         H           -0.461663060523     6.945542966388    -0.141769382683     1.007825032070
         H           -1.308604724523     6.482390997788    -2.124185314583     1.007825032070
         H           -3.058704703523     5.301281693088    -3.257133655783     1.007825032070

  Running in c1 symmetry.

  Rotational constants: A =      0.00128  B =      0.00092  C =      0.00091 [cm^-1]
  Rotational constants: A =     38.24518  B =     27.54988  C =     27.17704 [MHz]
  Nuclear repulsion = 16337.493344937363872

  Charge       = 0
  Multiplicity = 1
  Electrons    = 568
  Nalpha       = 284
  Nbeta        = 284

  ==> Algorithm <==

  SCF Algorithm Type is DF.
  DIIS enabled.
  MOM disabled.
  Fractional occupation disabled.
  Guess Type is SAD.
  Energy threshold   = 1.00e-08
  Density threshold  = 1.00e-08
  Integral threshold = 0.00e+00

  ==> Primary Basis <==

  Basis Set: 6-31G(D)
    Blend: 6-31G(D)
    Number of shells: 590
    Number of basis function: 1409
    Number of Cartesian functions: 1409
    Spherical Harmonics?: false
    Max angular momentum: 2

  ==> DFT Potential <==

   => Composite Functional: PBE <= 

    PBE GGA Exchange-Correlation Functional

    J.P. Perdew et. al., Phys. Rev. Lett., 77(18), 3865-3868, 1996


    Deriv               =              1
    GGA                 =           TRUE
    Meta                =          FALSE

    Exchange Hybrid     =          FALSE
    MP2 Hybrid          =          FALSE

   => Exchange Functionals <=

    1.0000     XC_GGA_X_PBE

   => Correlation Functionals <=

    1.0000     XC_GGA_C_PBE

   => Molecular Quadrature <=

    Radial Scheme          =       TREUTLER
    Pruning Scheme         =           FLAT
    Nuclear Scheme         =       TREUTLER

    BS radius alpha        =              1
    Pruning alpha          =              1
    Radial Points          =             75
    Spherical Points       =            302
    Total Points           =        2507429
    Total Blocks           =          17123
    Max Points             =            256
    Max Functions          =            724

   => Loading Basis Set <=

    Name: (6-31G(D) AUX)
    Role: JKFIT
    Keyword: DF_BASIS_SCF
    atoms 1-91   entry C          line   121 file /home/localadmin/miniconda/envs/p4env/share/psi4/basis/cc-pvdz-jkfit.gbs 
    atoms 92-113 entry H          line    51 file /home/localadmin/miniconda/envs/p4env/share/psi4/basis/cc-pvdz-jkfit.gbs 

  ==> Pre-Iterations <==

   -------------------------------------------------------
    Irrep   Nso     Nmo     Nalpha   Nbeta   Ndocc  Nsocc
   -------------------------------------------------------
     A       1409    1409       0       0       0       0
   -------------------------------------------------------
    Total    1409    1409     284     284     284       0
   -------------------------------------------------------

  ==> Integral Setup <==

  ==> DiskDFJK: Density-Fitted J/K Matrices <==

    J tasked:                  Yes
    K tasked:                   No
    wK tasked:                  No
    OpenMP threads:              1
    Integrals threads:           1
    Memory [MiB]:             2574
    Algorithm:                Disk
    Integral Cache:           NONE
    Schwarz Cutoff:          1E-12
    Fitting Condition:       1E-12

   => Auxiliary Basis Set <=

  Basis Set: (6-31G(D) AUX)
    Blend: CC-PVDZ-JKFIT
    Number of shells: 2382
    Number of basis function: 7921
    Number of Cartesian functions: 7921
    Spherical Harmonics?: false
    Max angular momentum: 3

  Cached 1.2% of DFT collocation blocks in 272 MiB.

  Minimum eigenvalue in the overlap matrix is 6.4400933133E-05.
  Using Symmetric Orthogonalization.

  SCF Guess: Superposition of Atomic Densities via on-the-fly atomic UHF.

  ==> Iterations <==

                           Total Energy        Delta E     RMS |[F,P]|

   @DF-RKS iter   0: -3499.86483401016221   -3.49986e+03   1.18638e-02 
   @DF-RKS iter   1: -3475.35807465624202    2.45068e+01   1.16155e-03 
   @DF-RKS iter   2: -3470.15332067449617    5.20475e+00   2.32609e-03 DIIS
   @DF-RKS iter   3: -3473.11465281624351   -2.96133e+00   1.62928e-03 DIIS
   @DF-RKS iter   4: -3476.68077392337591   -3.56612e+00   3.68470e-04 DIIS
   @DF-RKS iter   5: -3476.17604247200961    5.04731e-01   6.67885e-04 DIIS
   @DF-RKS iter   6: -3476.84589336946374   -6.69851e-01   1.61540e-04 DIIS
   @DF-RKS iter   7: -3476.85720405120492   -1.13107e-02   1.26223e-04 DIIS
   @DF-RKS iter   8: -3476.87667154035125   -1.94675e-02   5.89322e-05 DIIS
   @DF-RKS iter   9: -3476.88045923606842   -3.78770e-03   2.15479e-05 DIIS
   @DF-RKS iter  10: -3476.88097558738946   -5.16351e-04   7.78592e-06 DIIS
   @DF-RKS iter  11: -3476.88104832584213   -7.27385e-05   2.50567e-06 DIIS
   @DF-RKS iter  12: -3476.88105476463215   -6.43879e-06   1.21351e-06 DIIS
   @DF-RKS iter  13: -3476.88105627181722   -1.50719e-06   6.33864e-07 DIIS
   @DF-RKS iter  14: -3476.88105672937581   -4.57559e-07   2.69408e-07 DIIS
   @DF-RKS iter  15: -3476.88105681519392   -8.58181e-08   5.48209e-08 DIIS
   @DF-RKS iter  16: -3476.88105681767365   -2.47974e-09   2.96812e-08 DIIS
   @DF-RKS iter  17: -3476.88105681862862   -9.54969e-10   1.38710e-08 DIIS
   @DF-RKS iter  18: -3476.88105681887691   -2.48292e-10   1.04244e-08 DIIS
   @DF-RKS iter  19: -3476.88105681885781    1.90994e-11   7.76818e-09 DIIS
  Energy converged.


  ==> Post-Iterations <==

    Orbital Energies [Eh]
    ---------------------

    Doubly Occupied:                                                      

       1A     -9.922522     2A     -9.920547     3A     -9.919668  
       4A     -9.916931     5A     -9.916903     6A     -9.916721  
       7A     -9.916670     8A     -9.916662     9A     -9.916659  
      10A     -9.916633    11A     -9.916593    12A     -9.916462  
      13A     -9.916451    14A     -9.916385    15A     -9.916381  
      16A     -9.916301    17A     -9.916283    18A     -9.916182  
      19A     -9.915828    20A     -9.915558    21A     -9.914949  
      22A     -9.914522    23A     -9.914466    24A     -9.914457  
      25A     -9.914241    26A     -9.914195    27A     -9.914158  
      28A     -9.914150    29A     -9.914141    30A     -9.914019  
      31A     -9.914008    32A     -9.913936    33A     -9.913909  
      34A     -9.913888    35A     -9.913839    36A     -9.913820  
      37A     -9.913746    38A     -9.913686    39A     -9.913665  
      40A     -9.913456    41A     -9.913381    42A     -9.913351  
      43A     -9.913297    44A     -9.913261    45A     -9.913245  
      46A     -9.913207    47A     -9.913165    48A     -9.913132  
      49A     -9.913101    50A     -9.913027    51A     -9.913001  
      52A     -9.912947    53A     -9.912906    54A     -9.912897  
      55A     -9.912844    56A     -9.912794    57A     -9.912754  
      58A     -9.912732    59A     -9.912696    60A     -9.912690  
      61A     -9.912649    62A     -9.912628    63A     -9.912569  
      64A     -9.912493    65A     -9.912474    66A     -9.912384  
      67A     -9.912294    68A     -9.912154    69A     -9.911927  
      70A     -9.911714    71A     -9.911694    72A     -9.911619  
      73A     -9.911606    74A     -9.911544    75A     -9.911488  
      76A     -9.911485    77A     -9.911396    78A     -9.911346  
      79A     -9.911308    80A     -9.911285    81A     -9.911250  
      82A     -9.911231    83A     -9.911122    84A     -9.911115  
      85A     -9.911027    86A     -9.910937    87A     -9.910909  
      88A     -9.909885    89A     -9.909517    90A     -9.907029  
      91A     -9.903604    92A     -0.860440    93A     -0.850485  
      94A     -0.850385    95A     -0.836626    96A     -0.827077  
      97A     -0.826909    98A     -0.821207    99A     -0.821111  
     100A     -0.800759   101A     -0.799114   102A     -0.798740  
     103A     -0.791715   104A     -0.791357   105A     -0.775034  
     106A     -0.774849   107A     -0.764875   108A     -0.763923  
     109A     -0.755416   110A     -0.754092   111A     -0.753860  
     112A     -0.747132   113A     -0.745658   114A     -0.723163  
     115A     -0.719598   116A     -0.719433   117A     -0.718815  
     118A     -0.713448   119A     -0.713253   120A     -0.702807  
     121A     -0.695903   122A     -0.693765   123A     -0.693419  
     124A     -0.691427   125A     -0.681415   126A     -0.678280  
     127A     -0.674583   128A     -0.671355   129A     -0.663821  
     130A     -0.662606   131A     -0.655785   132A     -0.653762  
     133A     -0.645012   134A     -0.643376   135A     -0.640767  
     136A     -0.627530   137A     -0.614857   138A     -0.609879  
     139A     -0.600655   140A     -0.599336   141A     -0.597663  
     142A     -0.597222   143A     -0.594519   144A     -0.592759  
     145A     -0.590418   146A     -0.583560   147A     -0.568910  
     148A     -0.567673   149A     -0.565097   150A     -0.551320  
     151A     -0.549635   152A     -0.546345   153A     -0.546201  
     154A     -0.543173   155A     -0.540434   156A     -0.539722  
     157A     -0.538926   158A     -0.531419   159A     -0.527627  
     160A     -0.517335   161A     -0.513530   162A     -0.500255  
     163A     -0.498468   164A     -0.497921   165A     -0.480808  
     166A     -0.479829   167A     -0.479321   168A     -0.477824  
     169A     -0.474978   170A     -0.474355   171A     -0.470853  
     172A     -0.465263   173A     -0.463733   174A     -0.460653  
     175A     -0.460259   176A     -0.460112   177A     -0.447982  
     178A     -0.445195   179A     -0.443629   180A     -0.439105  
     181A     -0.437221   182A     -0.430833   183A     -0.429996  
     184A     -0.420130   185A     -0.418577   186A     -0.417386  
     187A     -0.416243   188A     -0.412390   189A     -0.411789  
     190A     -0.409358   191A     -0.409017   192A     -0.408752  
     193A     -0.407485   194A     -0.403912   195A     -0.399790  
     196A     -0.397780   197A     -0.396261   198A     -0.395409  
     199A     -0.395217   200A     -0.393769   201A     -0.391786  
     202A     -0.391171   203A     -0.390123   204A     -0.389157  
     205A     -0.385387   206A     -0.382986   207A     -0.382320  
     208A     -0.381265   209A     -0.380017   210A     -0.376095  
     211A     -0.372858   212A     -0.371310   213A     -0.369508  
     214A     -0.369249   215A     -0.366747   216A     -0.366593  
     217A     -0.363224   218A     -0.361066   219A     -0.358574  
     220A     -0.358278   221A     -0.357704   222A     -0.355491  
     223A     -0.353968   224A     -0.353188   225A     -0.352191  
     226A     -0.348201   227A     -0.347094   228A     -0.345534  
     229A     -0.344372   230A     -0.342158   231A     -0.336392  
     232A     -0.328790   233A     -0.328213   234A     -0.321815  
     235A     -0.321154   236A     -0.320341   237A     -0.318660  
     238A     -0.317681   239A     -0.309892   240A     -0.309633  
     241A     -0.305505   242A     -0.303918   243A     -0.303671  
     244A     -0.302515   245A     -0.297426   246A     -0.297201  
     247A     -0.296802   248A     -0.296072   249A     -0.294794  
     250A     -0.290702   251A     -0.285139   252A     -0.284410  
     253A     -0.283081   254A     -0.282498   255A     -0.279924  
     256A     -0.278737   257A     -0.278138   258A     -0.272138  
     259A     -0.271303   260A     -0.256395   261A     -0.255354  
     262A     -0.255126   263A     -0.253603   264A     -0.250411  
     265A     -0.249580   266A     -0.237803   267A     -0.237514  
     268A     -0.236580   269A     -0.230787   270A     -0.228966  
     271A     -0.218840   272A     -0.218692   273A     -0.218653  
     274A     -0.217833   275A     -0.217662   276A     -0.215901  
     277A     -0.191180   278A     -0.190402   279A     -0.189997  
     280A     -0.186616   281A     -0.185908   282A     -0.174785  
     283A     -0.170285   284A     -0.131855  

    Virtual:                                                              

     285A     -0.121468   286A     -0.084986   287A     -0.079713  
     288A     -0.076695   289A     -0.076245   290A     -0.067986  
     291A     -0.067400   292A     -0.067090   293A     -0.066863  
     294A     -0.066100   295A     -0.060186   296A     -0.059788  
     297A     -0.037290   298A     -0.036526   299A     -0.035958  
     300A     -0.035561   301A     -0.026477   302A     -0.025277  
     303A     -0.018313   304A     -0.017717   305A     -0.017387  
     306A     -0.015349   307A     -0.014967   308A      0.016503  
     309A      0.018561   310A      0.022340   311A      0.023613  
     312A      0.028137   313A      0.028565   314A      0.043600  
     315A      0.049344   316A      0.051869   317A      0.056259  
     318A      0.056626   319A      0.060877   320A      0.061762  
     321A      0.062901   322A      0.064732   323A      0.065173  
     324A      0.069085   325A      0.079605   326A      0.081562  
     327A      0.086410   328A      0.091885   329A      0.096323  
     330A      0.098223   331A      0.099813   332A      0.102666  
     333A      0.103130   334A      0.104563   335A      0.105238  
     336A      0.106263   337A      0.111028   338A      0.111232  
     339A      0.112079   340A      0.124614   341A      0.138283  
     342A      0.147334   343A      0.151851   344A      0.152067  
     345A      0.154554   346A      0.168485   347A      0.174984  
     348A      0.178248   349A      0.178897   350A      0.179086  
     351A      0.179791   352A      0.182449   353A      0.186241  
     354A      0.188156   355A      0.192603   356A      0.198718  
     357A      0.201164   358A      0.202227   359A      0.202745  
     360A      0.205513   361A      0.206405   362A      0.207660  
     363A      0.210592   364A      0.211698   365A      0.212756  
     366A      0.216585   367A      0.217198   368A      0.218391  
     369A      0.222760   370A      0.224525   371A      0.226130  
     372A      0.227818   373A      0.228817   374A      0.230789  
     375A      0.233234   376A      0.233863   377A      0.235216  
     378A      0.236824   379A      0.241347   380A      0.242044  
     381A      0.250463   382A      0.251234   383A      0.254001  
     384A      0.257206   385A      0.267449   386A      0.268477  
     387A      0.269975   388A      0.273437   389A      0.281667  
     390A      0.282175   391A      0.284001   392A      0.284345  
     393A      0.295938   394A      0.297415   395A      0.298652  
     396A      0.301445   397A      0.302250   398A      0.304501  
     399A      0.307055   400A      0.308528   401A      0.311518  
     402A      0.317977   403A      0.319143   404A      0.323374  
     405A      0.333132   406A      0.338103   407A      0.339899  
     408A      0.340955   409A      0.346496   410A      0.347951  
     411A      0.350782   412A      0.352089   413A      0.353087  
     414A      0.354130   415A      0.356784   416A      0.379579  
     417A      0.380004   418A      0.387467   419A      0.391500  
     420A      0.393144   421A      0.399258   422A      0.401792  
     423A      0.408233   424A      0.409960   425A      0.416386  
     426A      0.418278   427A      0.424855   428A      0.427063  
     429A      0.428445   430A      0.431291   431A      0.432810  
     432A      0.434321   433A      0.435291   434A      0.437728  
     435A      0.440465   436A      0.442956   437A      0.444666  
     438A      0.448699   439A      0.450435   440A      0.452215  
     441A      0.453239   442A      0.455724   443A      0.456314  
     444A      0.456569   445A      0.457386   446A      0.457648  
     447A      0.458837   448A      0.464035   449A      0.466452  
     450A      0.469347   451A      0.469771   452A      0.473676  
     453A      0.473892   454A      0.474785   455A      0.477030  
     456A      0.480269   457A      0.481290   458A      0.482679  
     459A      0.484364   460A      0.485465   461A      0.486001  
     462A      0.487328   463A      0.487520   464A      0.489947  
     465A      0.491136   466A      0.492003   467A      0.492679  
     468A      0.494266   469A      0.498579   470A      0.499090  
     471A      0.499838   472A      0.500597   473A      0.500737  
     474A      0.501359   475A      0.502255   476A      0.502272  
     477A      0.502801   478A      0.503347   479A      0.503491  
     480A      0.503622   481A      0.506666   482A      0.507022  
     483A      0.508651   484A      0.509731   485A      0.511074  
     486A      0.513671   487A      0.515240   488A      0.516219  
     489A      0.520513   490A      0.521354   491A      0.521563  
     492A      0.522595   493A      0.523071   494A      0.524538  
     495A      0.525023   496A      0.527485   497A      0.529526  
     498A      0.530330   499A      0.530981   500A      0.531805  
     501A      0.533343   502A      0.533885   503A      0.534237  
     504A      0.535044   505A      0.537040   506A      0.537210  
     507A      0.538160   508A      0.539449   509A      0.540011  
     510A      0.541045   511A      0.544061   512A      0.545495  
     513A      0.545745   514A      0.546289   515A      0.546964  
     516A      0.547505   517A      0.547555   518A      0.549214  
     519A      0.552423   520A      0.554195   521A      0.554410  
     522A      0.557192   523A      0.558036   524A      0.560536  
     525A      0.560982   526A      0.564207   527A      0.565170  
     528A      0.566055   529A      0.567182   530A      0.567840  
     531A      0.568295   532A      0.569836   533A      0.572143  
     534A      0.573989   535A      0.574209   536A      0.574428  
     537A      0.575202   538A      0.576107   539A      0.577259  
     540A      0.581649   541A      0.588340   542A      0.588703  
     543A      0.589590   544A      0.591165   545A      0.597878  
     546A      0.599086   547A      0.600734   548A      0.603080  
     549A      0.604346   550A      0.606322   551A      0.607706  
     552A      0.609179   553A      0.609381   554A      0.610419  
     555A      0.613383   556A      0.613665   557A      0.614042  
     558A      0.614889   559A      0.619347   560A      0.623667  
     561A      0.624722   562A      0.628587   563A      0.637925  
     564A      0.638162   565A      0.639100   566A      0.643044  
     567A      0.644340   568A      0.647977   569A      0.650922  
     570A      0.653657   571A      0.656442   572A      0.657258  
     573A      0.658960   574A      0.659485   575A      0.659858  
     576A      0.660513   577A      0.662208   578A      0.663501  
     579A      0.664988   580A      0.668447   581A      0.668963  
     582A      0.670359   583A      0.679755   584A      0.682104  
     585A      0.689652   586A      0.695964   587A      0.697808  
     588A      0.700583   589A      0.704098   590A      0.706484  
     591A      0.707385   592A      0.707981   593A      0.708288  
     594A      0.710936   595A      0.716254   596A      0.721740  
     597A      0.724461   598A      0.725311   599A      0.726755  
     600A      0.726954   601A      0.729849   602A      0.732908  
     603A      0.734734   604A      0.735635   605A      0.737065  
     606A      0.739288   607A      0.743660   608A      0.745101  
     609A      0.750875   610A      0.751620   611A      0.753213  
     612A      0.754364   613A      0.755320   614A      0.758455  
     615A      0.760776   616A      0.763232   617A      0.764054  
     618A      0.764366   619A      0.767172   620A      0.769854  
     621A      0.770310   622A      0.777878   623A      0.779220  
     624A      0.781638   625A      0.781917   626A      0.788932  
     627A      0.792348   628A      0.792995   629A      0.794873  
     630A      0.801771   631A      0.804333   632A      0.805278  
     633A      0.806753   634A      0.807545   635A      0.807937  
     636A      0.808873   637A      0.817437   638A      0.819691  
     639A      0.821838   640A      0.823953   641A      0.823978  
     642A      0.825948   643A      0.828652   644A      0.829690  
     645A      0.830868   646A      0.832732   647A      0.833515  
     648A      0.834577   649A      0.836603   650A      0.837819  
     651A      0.839417   652A      0.840496   653A      0.843422  
     654A      0.844461   655A      0.847382   656A      0.848473  
     657A      0.848884   658A      0.853442   659A      0.862966  
     660A      0.865140   661A      0.867439   662A      0.868059  
     663A      0.870184   664A      0.871187   665A      0.872176  
     666A      0.874183   667A      0.881854   668A      0.892336  
     669A      0.893788   670A      0.894505   671A      0.897885  
     672A      0.900150   673A      0.905003   674A      0.907540  
     675A      0.909441   676A      0.910223   677A      0.912187  
     678A      0.918074   679A      0.920005   680A      0.921492  
     681A      0.925424   682A      0.935400   683A      0.944595  
     684A      0.945812   685A      0.946197   686A      0.946891  
     687A      0.947270   688A      0.948302   689A      0.949944  
     690A      0.952142   691A      0.957398   692A      0.959276  
     693A      0.966525   694A      0.978126   695A      0.979392  
     696A      0.981162   697A      0.982489   698A      0.986051  
     699A      0.986368   700A      0.986993   701A      0.987539  
     702A      0.989225   703A      0.991692   704A      0.995355  
     705A      1.003036   706A      1.005660   707A      1.012283  
     708A      1.013889   709A      1.019849   710A      1.031154  
     711A      1.033399   712A      1.034078   713A      1.036586  
     714A      1.040706   715A      1.041742   716A      1.044508  
     717A      1.046898   718A      1.047432   719A      1.049574  
     720A      1.054754   721A      1.062606   722A      1.062938  
     723A      1.064026   724A      1.065847   725A      1.067793  
     726A      1.068445   727A      1.072564   728A      1.075075  
     729A      1.075958   730A      1.078661   731A      1.080670  
     732A      1.081633   733A      1.084022   734A      1.091118  
     735A      1.095570   736A      1.104220   737A      1.106842  
     738A      1.109541   739A      1.114222   740A      1.118459  
     741A      1.122475   742A      1.123056   743A      1.123388  
     744A      1.125028   745A      1.128400   746A      1.135745  
     747A      1.138657   748A      1.139063   749A      1.140679  
     750A      1.141998   751A      1.143212   752A      1.145754  
     753A      1.152603   754A      1.155033   755A      1.155647  
     756A      1.158734   757A      1.160706   758A      1.162182  
     759A      1.165906   760A      1.173807   761A      1.174539  
     762A      1.182691   763A      1.187394   764A      1.189636  
     765A      1.190826   766A      1.191224   767A      1.194681  
     768A      1.195828   769A      1.197086   770A      1.198435  
     771A      1.199235   772A      1.201663   773A      1.204348  
     774A      1.210610   775A      1.227781   776A      1.229860  
     777A      1.235616   778A      1.236542   779A      1.240885  
     780A      1.245088   781A      1.246902   782A      1.253354  
     783A      1.255457   784A      1.256189   785A      1.256499  
     786A      1.259460   787A      1.260632   788A      1.264476  
     789A      1.266484   790A      1.268750   791A      1.271972  
     792A      1.273061   793A      1.274585   794A      1.276639  
     795A      1.278866   796A      1.283674   797A      1.286309  
     798A      1.291027   799A      1.294596   800A      1.296401  
     801A      1.296540   802A      1.298215   803A      1.301267  
     804A      1.303496   805A      1.307626   806A      1.312132  
     807A      1.313688   808A      1.315734   809A      1.317971  
     810A      1.318712   811A      1.321959   812A      1.323978  
     813A      1.325659   814A      1.329762   815A      1.330524  
     816A      1.331833   817A      1.332419   818A      1.334253  
     819A      1.335612   820A      1.336004   821A      1.338342  
     822A      1.349016   823A      1.360232   824A      1.362005  
     825A      1.371312   826A      1.376396   827A      1.382595  
     828A      1.387371   829A      1.395957   830A      1.396856  
     831A      1.401993   832A      1.403822   833A      1.407392  
     834A      1.412265   835A      1.414207   836A      1.415205  
     837A      1.417796   838A      1.418299   839A      1.428665  
     840A      1.446216   841A      1.447939   842A      1.454818  
     843A      1.455738   844A      1.458158   845A      1.459953  
     846A      1.461271   847A      1.462594   848A      1.464557  
     849A      1.468367   850A      1.468789   851A      1.471506  
     852A      1.473215   853A      1.474172   854A      1.475285  
     855A      1.477747   856A      1.484788   857A      1.485532  
     858A      1.487618   859A      1.488935   860A      1.489892  
     861A      1.491711   862A      1.498169   863A      1.499344  
     864A      1.505412   865A      1.507145   866A      1.508474  
     867A      1.509261   868A      1.511707   869A      1.513772  
     870A      1.515631   871A      1.517339   872A      1.520618  
     873A      1.524550   874A      1.529167   875A      1.530024  
     876A      1.534127   877A      1.536638   878A      1.540929  
     879A      1.542666   880A      1.547387   881A      1.555069  
     882A      1.558410   883A      1.560391   884A      1.561615  
     885A      1.563922   886A      1.567985   887A      1.570282  
     888A      1.575466   889A      1.577699   890A      1.580818  
     891A      1.583919   892A      1.585159   893A      1.585554  
     894A      1.586403   895A      1.594636   896A      1.598094  
     897A      1.608504   898A      1.610976   899A      1.611836  
     900A      1.614808   901A      1.615667   902A      1.625758  
     903A      1.626892   904A      1.634728   905A      1.637659  
     906A      1.643897   907A      1.644507   908A      1.653837  
     909A      1.657715   910A      1.658449   911A      1.664375  
     912A      1.666639   913A      1.676473   914A      1.676835  
     915A      1.677035   916A      1.677764   917A      1.679288  
     918A      1.687487   919A      1.690019   920A      1.693086  
     921A      1.695616   922A      1.698377   923A      1.703980  
     924A      1.704818   925A      1.710814   926A      1.715990  
     927A      1.717808   928A      1.718256   929A      1.718536  
     930A      1.718970   931A      1.720870   932A      1.721890  
     933A      1.722762   934A      1.723831   935A      1.725989  
     936A      1.729254   937A      1.736144   938A      1.739282  
     939A      1.741611   940A      1.742190   941A      1.742870  
     942A      1.744090   943A      1.750106   944A      1.753490  
     945A      1.754958   946A      1.756328   947A      1.761741  
     948A      1.763188   949A      1.764143   950A      1.765835  
     951A      1.770664   952A      1.772058   953A      1.775729  
     954A      1.778642   955A      1.781091   956A      1.782295  
     957A      1.783695   958A      1.790676   959A      1.796716  
     960A      1.804599   961A      1.806951   962A      1.808276  
     963A      1.810458   964A      1.810740   965A      1.811649  
     966A      1.812183   967A      1.815081   968A      1.816413  
     969A      1.817337   970A      1.821048   971A      1.822934  
     972A      1.823769   973A      1.824913   974A      1.826402  
     975A      1.833105   976A      1.834950   977A      1.838062  
     978A      1.843683   979A      1.845607   980A      1.847682  
     981A      1.849868   982A      1.852600   983A      1.853884  
     984A      1.854465   985A      1.854671   986A      1.859369  
     987A      1.867311   988A      1.870131   989A      1.872276  
     990A      1.874323   991A      1.878416   992A      1.880720  
     993A      1.882332   994A      1.883041   995A      1.883359  
     996A      1.886177   997A      1.890090   998A      1.892558  
     999A      1.897350  1000A      1.898356  1001A      1.904356  
    1002A      1.906801  1003A      1.909599  1004A      1.910438  
    1005A      1.912858  1006A      1.917494  1007A      1.920014  
    1008A      1.927883  1009A      1.930035  1010A      1.931799  
    1011A      1.933746  1012A      1.943517  1013A      1.944762  
    1014A      1.954775  1015A      1.957387  1016A      1.961786  
    1017A      1.964875  1018A      1.965371  1019A      1.968705  
    1020A      1.970043  1021A      1.970115  1022A      1.970591  
    1023A      1.974535  1024A      1.987498  1025A      1.995385  
    1026A      1.999359  1027A      2.007920  1028A      2.012580  
    1029A      2.025897  1030A      2.030797  1031A      2.032087  
    1032A      2.036097  1033A      2.038643  1034A      2.039031  
    1035A      2.040458  1036A      2.041376  1037A      2.045968  
    1038A      2.061143  1039A      2.063644  1040A      2.068079  
    1041A      2.072998  1042A      2.082106  1043A      2.087637  
    1044A      2.096213  1045A      2.103163  1046A      2.107932  
    1047A      2.108459  1048A      2.109783  1049A      2.111957  
    1050A      2.112541  1051A      2.114758  1052A      2.117346  
    1053A      2.118895  1054A      2.121154  1055A      2.123147  
    1056A      2.125783  1057A      2.130099  1058A      2.134194  
    1059A      2.135351  1060A      2.137161  1061A      2.138063  
    1062A      2.140693  1063A      2.144290  1064A      2.146549  
    1065A      2.147866  1066A      2.151828  1067A      2.153427  
    1068A      2.158092  1069A      2.159222  1070A      2.159607  
    1071A      2.162532  1072A      2.163840  1073A      2.166976  
    1074A      2.169409  1075A      2.172059  1076A      2.175891  
    1077A      2.178031  1078A      2.179259  1079A      2.182893  
    1080A      2.185332  1081A      2.187692  1082A      2.189560  
    1083A      2.190140  1084A      2.191270  1085A      2.195503  
    1086A      2.200404  1087A      2.208087  1088A      2.208991  
    1089A      2.210626  1090A      2.214131  1091A      2.215027  
    1092A      2.216863  1093A      2.219106  1094A      2.220486  
    1095A      2.225327  1096A      2.226439  1097A      2.227068  
    1098A      2.228289  1099A      2.231540  1100A      2.232757  
    1101A      2.233804  1102A      2.242251  1103A      2.242938  
    1104A      2.244455  1105A      2.247811  1106A      2.248376  
    1107A      2.254415  1108A      2.261015  1109A      2.266858  
    1110A      2.268258  1111A      2.269183  1112A      2.271726  
    1113A      2.277201  1114A      2.282862  1115A      2.295654  
    1116A      2.299331  1117A      2.300553  1118A      2.302510  
    1119A      2.310892  1120A      2.323525  1121A      2.329809  
    1122A      2.332878  1123A      2.338992  1124A      2.340168  
    1125A      2.345160  1126A      2.350572  1127A      2.352266  
    1128A      2.357180  1129A      2.368515  1130A      2.369970  
    1131A      2.371584  1132A      2.374096  1133A      2.382399  
    1134A      2.383404  1135A      2.384146  1136A      2.390227  
    1137A      2.413910  1138A      2.418215  1139A      2.422674  
    1140A      2.427287  1141A      2.428833  1142A      2.429360  
    1143A      2.430332  1144A      2.436016  1145A      2.439908  
    1146A      2.440092  1147A      2.452123  1148A      2.455741  
    1149A      2.461539  1150A      2.465766  1151A      2.468958  
    1152A      2.473079  1153A      2.474060  1154A      2.476471  
    1155A      2.481643  1156A      2.485564  1157A      2.493770  
    1158A      2.499586  1159A      2.499924  1160A      2.501677  
    1161A      2.505682  1162A      2.506419  1163A      2.508991  
    1164A      2.510920  1165A      2.514761  1166A      2.520899  
    1167A      2.523077  1168A      2.524755  1169A      2.525013  
    1170A      2.526586  1171A      2.533574  1172A      2.539850  
    1173A      2.541329  1174A      2.543450  1175A      2.546651  
    1176A      2.551659  1177A      2.552875  1178A      2.553490  
    1179A      2.553690  1180A      2.557145  1181A      2.565812  
    1182A      2.566960  1183A      2.567975  1184A      2.568217  
    1185A      2.569622  1186A      2.570301  1187A      2.572468  
    1188A      2.581363  1189A      2.590321  1190A      2.593318  
    1191A      2.593938  1192A      2.595218  1193A      2.598006  
    1194A      2.607717  1195A      2.613782  1196A      2.624503  
    1197A      2.626970  1198A      2.631094  1199A      2.634794  
    1200A      2.636216  1201A      2.637572  1202A      2.649404  
    1203A      2.652832  1204A      2.657687  1205A      2.662799  
    1206A      2.666495  1207A      2.680195  1208A      2.680935  
    1209A      2.683964  1210A      2.686498  1211A      2.687684  
    1212A      2.688447  1213A      2.692707  1214A      2.694509  
    1215A      2.699364  1216A      2.703614  1217A      2.704109  
    1218A      2.704862  1219A      2.707205  1220A      2.709832  
    1221A      2.710994  1222A      2.713951  1223A      2.718098  
    1224A      2.724826  1225A      2.729540  1226A      2.737753  
    1227A      2.743223  1228A      2.744009  1229A      2.746673  
    1230A      2.751783  1231A      2.753545  1232A      2.755459  
    1233A      2.755860  1234A      2.757349  1235A      2.762135  
    1236A      2.762431  1237A      2.764411  1238A      2.768720  
    1239A      2.779876  1240A      2.780913  1241A      2.785795  
    1242A      2.786478  1243A      2.787048  1244A      2.793513  
    1245A      2.799810  1246A      2.806199  1247A      2.806718  
    1248A      2.811788  1249A      2.822659  1250A      2.831277  
    1251A      2.843857  1252A      2.853335  1253A      2.855315  
    1254A      2.856130  1255A      2.857420  1256A      2.858419  
    1257A      2.863478  1258A      2.864618  1259A      2.868100  
    1260A      2.888747  1261A      2.890736  1262A      2.891944  
    1263A      2.892324  1264A      2.892966  1265A      2.895639  
    1266A      2.898990  1267A      2.900206  1268A      2.912462  
    1269A      2.927804  1270A      2.928447  1271A      2.931870  
    1272A      2.959264  1273A      2.962782  1274A      2.977866  
    1275A      2.980170  1276A      2.980919  1277A      2.984955  
    1278A      3.001358  1279A      3.002305  1280A      3.037290  
    1281A      3.041338  1282A      3.043108  1283A      3.044472  
    1284A      3.066681  1285A      3.103529  1286A      3.104480  
    1287A      3.122249  1288A      3.126025  1289A      3.126692  
    1290A      3.152181  1291A      3.154189  1292A      3.207184  
    1293A      3.209078  1294A      3.211612  1295A      3.213035  
    1296A      3.215631  1297A      3.217424  1298A      3.246521  
    1299A      3.246979  1300A      3.287288  1301A      3.288766  
    1302A      3.340085  1303A      3.340379  1304A      3.340651  
    1305A      3.342136  1306A      3.361857  1307A      3.365467  
    1308A      3.388224  1309A      3.391346  1310A      3.432495  
    1311A      3.472175  1312A      3.550867  1313A      3.553480  
    1314A      3.554689  1315A      3.557229  1316A      3.558783  
    1317A      3.642288  1318A      3.649638  1319A      3.989070  
    1320A      3.990428  1321A      3.996035  1322A      3.999884  
    1323A      3.999995  1324A      4.001684  1325A      4.013911  
    1326A      4.016708  1327A      4.016973  1328A      4.018948  
    1329A      4.019595  1330A      4.023768  1331A      4.026703  
    1332A      4.027460  1333A      4.031857  1334A      4.032163  
    1335A      4.032757  1336A      4.033390  1337A      4.033966  
    1338A      4.049235  1339A      4.049319  1340A      4.052699  
    1341A      4.053314  1342A      4.056556  1343A      4.056749  
    1344A      4.056996  1345A      4.058854  1346A      4.063300  
    1347A      4.064255  1348A      4.070777  1349A      4.075958  
    1350A      4.076252  1351A      4.080534  1352A      4.080772  
    1353A      4.089718  1354A      4.090643  1355A      4.130861  
    1356A      4.133736  1357A      4.135773  1358A      4.153767  
    1359A      4.159808  1360A      4.165633  1361A      4.168626  
    1362A      4.169767  1363A      4.221708  1364A      4.249721  
    1365A      4.250181  1366A      4.251433  1367A      4.254595  
    1368A      4.259421  1369A      4.266816  1370A      4.272116  
    1371A      4.288194  1372A      4.309253  1373A      4.311579  
    1374A      4.316425  1375A      4.317556  1376A      4.321447  
    1377A      4.324445  1378A      4.326931  1379A      4.333540  
    1380A      4.343330  1381A      4.344763  1382A      4.346553  
    1383A      4.361170  1384A      4.382789  1385A      4.428891  
    1386A      4.430605  1387A      4.443708  1388A      4.444587  
    1389A      4.450759  1390A      4.458616  1391A      4.460242  
    1392A      4.461306  1393A      4.471239  1394A      4.559971  
    1395A      4.582827  1396A      4.583068  1397A      4.608958  
    1398A      4.610265  1399A      4.616396  1400A      4.619926  
    1401A      4.723776  1402A      4.777984  1403A      4.778437  
    1404A      4.803124  1405A      4.804721  1406A      4.919432  
    1407A      4.999622  1408A      5.000994  1409A      5.138996  

    Final Occupation by Irrep:
              A 
    DOCC [   284 ]

  @DF-RKS Final Energy: -3476.88105681885781

   => Energetics <=

    Nuclear Repulsion Energy =          16337.4933449373638723
    One-Electron Energy =              -37288.2542008997043013
    Two-Electron Energy =               17973.1022116105777968
    DFT Exchange-Correlation Energy =    -499.2224124670950118
    Empirical Dispersion Energy =           0.0000000000000000
    VV10 Nonlocal Energy =                  0.0000000000000000
    Total Energy =                      -3476.8810568188578145

Computation Completed


Properties will be evaluated at   0.000000,   0.000000,   0.000000 [a0]

Properties computed using the SCF density matrix

  Nuclear Dipole Moment: [e a0]
     X:     3.8170      Y:   -10.3766      Z:    -7.8240

  Electronic Dipole Moment: [e a0]
     X:    -3.7580      Y:    10.1234      Z:     7.6036

  Dipole Moment: [e a0]
     X:     0.0589      Y:    -0.2531      Z:    -0.2203     Total:     0.3408

  Dipole Moment: [D]
     X:     0.1498      Y:    -0.6434      Z:    -0.5601     Total:     0.8661


*** tstop() called on atom at Sat Jul 25 17:54:22 2020
Module time:
	user time   =    9906.67 seconds =     165.11 minutes
	system time =     566.96 seconds =       9.45 minutes
	total time  =      25811 seconds =     430.18 minutes
Total time:
	user time   =    9906.67 seconds =     165.11 minutes
	system time =     566.96 seconds =       9.45 minutes
	total time  =      25811 seconds =     430.18 minutes

*** tstart() called on atom
*** at Sat Jul 25 17:54:22 2020


         ------------------------------------------------------------
                                   SCF GRAD                          
                          Rob Parrish, Justin Turney,                
                       Andy Simmonett, and Alex Sokolov              
         ------------------------------------------------------------

  ==> Geometry <==

    Molecular point group: c1
    Full point group: C1

    Geometry (in Angstrom), charge = 0, multiplicity = 1:

       Center              X                  Y                   Z               Mass       
    ------------   -----------------  -----------------  -----------------  -----------------
         C            1.967409398577    -5.756181395512    -4.110657546183    12.000000000000
         C            1.046151854577    -4.861343982912    -3.332042293683    12.000000000000
         C            0.285653426477    -5.463502794712    -2.312356733383    12.000000000000
         C            0.041659135177    -5.895726922312     0.636287865917    12.000000000000
         C            0.583512143377    -5.604959650712     1.892820004917    12.000000000000
         C            2.760471432677    -4.141556376112     3.293427288817    12.000000000000
         C            3.875758929077    -3.319505211512     3.102839426817    12.000000000000
         C            5.540330620677    -1.950909045112     1.053024629117    12.000000000000
         C            5.690637710677    -1.732846067712    -0.320267946583    12.000000000000
         C            4.547860455777    -2.343271540912    -2.996689464483    12.000000000000
         C            3.527930673677    -3.038372391912    -3.656039098883    12.000000000000
         C            2.196575676777    -2.582625362812    -3.595249287183    12.000000000000
         C            1.040177016477    -3.442100407412    -3.428901501483    12.000000000000
         C           -0.137800884123    -2.811746132212    -2.972763416783    12.000000000000
         C           -0.931077621523    -3.444049352112    -1.986006445283    12.000000000000
         C           -0.522773422423    -4.683391135512    -1.471118593883    12.000000000000
         C           -0.662064363123    -4.900366855012    -0.062561208583    12.000000000000
         C           -1.221078575923    -3.861411385012     0.705736158117    12.000000000000
         C           -0.674465573323    -3.567519260112     1.976237147717    12.000000000000
         C            0.421406746077    -4.319703270612     2.441376057817    12.000000000000
         C            1.469526784477    -3.614670685612     3.114976735517    12.000000000000
         C            1.329400530777    -2.220466255812     3.263469315617    12.000000000000
         C            2.457586917577    -1.388912576712     3.070363420517    12.000000000000
         C            3.694337440577    -1.974702941912     2.735298433817    12.000000000000
         C            4.495305489877    -1.316547460712     1.747956748817    12.000000000000
         C            3.987210976277    -0.131993163112     1.180359456917    12.000000000000
         C            4.137149255077     0.086103510388    -0.208926203683    12.000000000000
         C            4.793129698177    -0.883249669012    -0.990213475483    12.000000000000
         C            4.238561169177    -1.182667093212    -2.275263970483    12.000000000000
         C            3.074550343977    -0.497042774112    -2.664781975783    12.000000000000
         C            2.042621695177    -1.204063512512    -3.331178736383    12.000000000000
         C            0.768123781977    -0.610689840612    -3.369394887683    12.000000000000
         C           -0.348681612623    -1.433762675312    -3.181462385983    12.000000000000
         C           -1.561236828423    -0.822799651912    -2.797795520383    12.000000000000
         C           -2.344548779923    -1.458488544412    -1.824309757483    12.000000000000
         C           -1.875553583523    -2.670111227412    -1.285490543883    12.000000000000
         C           -2.027009137023    -2.885113879612     0.092080868417    12.000000000000
         C           -2.637662344523    -1.874491130512     0.859354394717    12.000000000000
         C           -2.096951376223    -1.582175965312     2.120141599617    12.000000000000
         C           -0.972260884423    -2.315551309212     2.547778716117    12.000000000000
         C            0.054486206077    -1.625259241712     3.207590869317    12.000000000000
         C           -0.099002075723    -0.238517946712     3.405655733717    12.000000000000
         C            1.019640846077     0.585802916388     3.213625759817    12.000000000000
         C            2.234388670877    -0.018742322912     2.834064082417    12.000000000000
         C            3.017514331277     0.624637533288     1.864871787817    12.000000000000
         C            2.543278447777     1.836501869788     1.324829158717    12.000000000000
         C            2.691067899377     2.050500642388    -0.053715789483    12.000000000000
         C            3.306091704077     1.042680250688    -0.820809547683    12.000000000000
         C            2.762189780377     0.743781742688    -2.078843467083    12.000000000000
         C            1.635904529077     1.471359732988    -2.505824299483    12.000000000000
         C            0.613036071477     0.777567851288    -3.168822744783    12.000000000000
         C           -0.662921794823     1.372374342288    -3.221368832683    12.000000000000
         C           -1.780960495223     0.549432220488    -3.029860315083    12.000000000000
         C           -2.998725318923     1.153869989288    -2.661322206283    12.000000000000
         C           -3.787913037523     0.510109066488    -1.679647890383    12.000000000000
         C           -3.306422016023    -0.694303628012    -1.133973615183    12.000000000000
         C           -3.456641691623    -0.907616264112     0.244218889817    12.000000000000
         C           -4.079676944923     0.094502447888     1.011642180317    12.000000000000
         C           -3.534740318323     0.390094717688     2.283481251017    12.000000000000
         C           -2.403119678423    -0.336173453612     2.701591501417    12.000000000000
         C           -1.376833829723     0.353932171888     3.362623578717    12.000000000000
         C           -1.532506426023     1.737092900888     3.574734927017    12.000000000000
         C           -0.404360061423     2.568206572988     3.380894731217    12.000000000000
         C            0.802979888577     1.959895899388     2.988345922517    12.000000000000
         C            1.585096255877     2.601940953088     2.017348368317    12.000000000000
         C            1.121849131777     3.820098995788     1.484486455817    12.000000000000
         C            1.270946160177     4.035127066088     0.093914144117    12.000000000000
         C            1.873596770177     3.017837038988    -0.669806040183    12.000000000000
         C            1.332616900177     2.721124165188    -1.929555166983    12.000000000000
         C            0.216109747177     3.457937897588    -2.366617045683    12.000000000000
         C           -0.816563282123     2.760232604988    -3.035750199983    12.000000000000
         C           -2.089341489423     3.354324118188    -3.140579740283    12.000000000000
         C           -3.231128235523     2.513813160288    -2.944508550183    12.000000000000
         C           -4.511957727823     3.010802996688    -2.645585374083    12.000000000000
         C           -5.292003982523     2.373758482088    -1.675098812283    12.000000000000
         C           -4.787303235123     1.242916742688    -1.009736527983    12.000000000000
         C           -4.939442080023     1.026001864888     0.397578832617    12.000000000000
         C           -5.607502593223     1.923363293188     1.249139753117    12.000000000000
         C           -5.068909383223     2.215822185888     2.506484790117    12.000000000000
         C           -3.864591864723     1.609868360088     2.905562072117    12.000000000000
         C           -2.817488207123     2.314069131588     3.581762428317    12.000000000000
         C           -2.894284443423     3.678465553588     3.911861467117    12.000000000000
         C           -1.778868787723     4.500088198988     3.720218331517    12.000000000000
         C           -0.593439594023     3.952322665188     3.199742792017    12.000000000000
         C            0.204194282577     4.606853075288     2.207152810717    12.000000000000
         C           -0.122129987823     5.859193850688     1.657622257317    12.000000000000
         C            0.025283867277     6.071586792888     0.282907804917    12.000000000000
         C            0.498762787577     5.030811566888    -0.535289651083    12.000000000000
         C           -0.052189718623     4.729360318488    -1.822241043383    12.000000000000
         C           -1.119277760823     5.446026733388    -2.391311984883    12.000000000000
         C           -2.140614810423     4.756615343088    -3.052810995683    12.000000000000
         H            2.865959160977    -5.988859612612    -3.531205177683     1.007825032070
         H            1.463358690077    -6.699846597612    -4.349223183583     1.007825032070
         H            2.241254049877    -5.304210683112    -5.068932836983     1.007825032070
         H            0.481914317077    -6.505979276012    -2.071774194183     1.007825032070
         H            0.394016780277    -6.793813921112     0.135660587317     1.007825032070
         H            1.320040511477    -6.298415940612     2.290235002417     1.007825032070
         H            2.931860964277    -5.214270785912     3.328227634117     1.007825032070
         H            4.842164737277    -3.806415900912     3.001535795317     1.007825032070
         H            6.077548397077    -2.790541939812     1.486213170817     1.007825032070
         H            6.334177491177    -2.417224235712    -0.866852641683     1.007825032070
         H            5.497239158077    -2.855341006112    -2.863978137283     1.007825032070
         H            3.777150912777    -4.035004396812    -3.997066755183     1.007825032070
         H           -4.816669702723     4.007103602488    -2.955118832883     1.007825032070
         H           -6.153249656923     2.915361705588    -1.292759177983     1.007825032070
         H           -6.386079506923     2.582677888088     0.874445772317     1.007825032070
         H           -5.463270624023     3.083886652388     3.028248227717     1.007825032070
         H           -3.851878484323     4.166833777588     4.072335444217     1.007825032070
         H           -1.940655253223     5.574565925788     3.744017560517     1.007825032070
         H           -0.714342256223     6.581598499988     2.213225275117     1.007825032070
         H           -0.461663060523     6.945542966388    -0.141769382683     1.007825032070
         H           -1.308604724523     6.482390997788    -2.124185314583     1.007825032070
         H           -3.058704703523     5.301281693088    -3.257133655783     1.007825032070

  Nuclear repulsion = 16337.493344937365691

  ==> Basis Set <==

  Basis Set: 6-31G(D)
    Blend: 6-31G(D)
    Number of shells: 590
    Number of basis function: 1409
    Number of Cartesian functions: 1409
    Spherical Harmonics?: false
    Max angular momentum: 2

  ==> DFJKGrad: Density-Fitted SCF Gradients <==

    Gradient:                    1
    J tasked:                  Yes
    K tasked:                   No
    wK tasked:                  No
    OpenMP threads:              1
    Integrals threads:           1
    Memory [MiB]:             2861
    Schwarz Cutoff:          0E+00
    Fitting Condition:       1E-12

   => Auxiliary Basis Set <=

  Basis Set: (6-31G(D) AUX)
    Blend: CC-PVDZ-JKFIT
    Number of shells: 2382
    Number of basis function: 7921
    Number of Cartesian functions: 7921
    Spherical Harmonics?: false
    Max angular momentum: 3

  ==> DFT Potential <==

   => Composite Functional: PBE <= 

    PBE GGA Exchange-Correlation Functional

    J.P. Perdew et. al., Phys. Rev. Lett., 77(18), 3865-3868, 1996


    Deriv               =              1
    GGA                 =           TRUE
    Meta                =          FALSE

    Exchange Hybrid     =          FALSE
    MP2 Hybrid          =          FALSE

   => Exchange Functionals <=

    1.0000     XC_GGA_X_PBE

   => Correlation Functionals <=

    1.0000     XC_GGA_C_PBE

   => Molecular Quadrature <=

    Radial Scheme          =       TREUTLER
    Pruning Scheme         =           FLAT
    Nuclear Scheme         =       TREUTLER

    BS radius alpha        =              1
    Pruning alpha          =              1
    Radial Points          =             75
    Spherical Points       =            302
    Total Points           =        2507429
    Total Blocks           =          17123
    Max Points             =            256
    Max Functions          =            724


  -Total Gradient:
     Atom            X                  Y                   Z
    ------   -----------------  -----------------  -----------------
       1        0.003444206917    -0.003664254956     0.004331717648
       2        0.000410145535     0.014826165513    -0.010607172753
       3       -0.008878338242    -0.006840148305     0.010894607828
       4       -0.011635619558     0.002291535190    -0.012792190872
       5        0.000115461906     0.008647250554     0.014490824226
       6       -0.016792693781    -0.002510463344     0.003827142332
       7        0.007622508544     0.015492398317    -0.000355281400
       8       -0.005225453269     0.004814760595     0.015485490700
       9       -0.001874724705     0.009630647187    -0.014103129913
      10        0.007630376522     0.014653694113     0.006955187331
      11       -0.015702359818     0.001768441636    -0.007161068462
      12       -0.000809199953     0.007814452632     0.011832371653
      13        0.000724101287     0.001659669166     0.008853267090
      14        0.003351491088     0.007081874677    -0.000170172468
      15        0.001451572546     0.001171149258     0.006891667057
      16        0.002775867042     0.011219897075     0.005412975816
      17        0.007107206506     0.010178928395    -0.002237524308
      18        0.000279505163     0.006802585611    -0.005390880985
      19        0.003075211665     0.007637519899     0.000802768539
      20        0.005476376832     0.010057178970    -0.007039381102
      21       -0.002375865902     0.004189899852    -0.012310420680
      22       -0.006322933260     0.001717542611    -0.005142441628
      23       -0.001021182477     0.005578606667    -0.006056119456
      24       -0.005978046823     0.001581874838    -0.011572914143
      25       -0.012105079085    -0.003220689030    -0.004196047561
      26       -0.007917010235    -0.000274888677     0.002497755084
      27       -0.007356043445     0.000973684530    -0.004403585457
      28       -0.012772814377    -0.004338116713     0.000450796330
      29       -0.009735767370    -0.001862155261     0.008603669862
      30       -0.000298975115     0.004559931317     0.007671652931
      31       -0.006888284118    -0.000295184236     0.002977667525
      32        0.005162535397    -0.009021737999     0.007555571025
      33        0.007053652269    -0.005423435833     0.006807019961
      34       -0.000204458865    -0.000309839739     0.014320615039
      35        0.012523385954     0.007735368678    -0.000489627431
      36        0.010012101047    -0.001528151294     0.002174993144
      37        0.011244384022    -0.001932420644     0.000479365484
      38        0.011000386674     0.007816126813     0.005438567576
      39        0.002954428875     0.003387284404    -0.013733523091
      40        0.008012500011    -0.003338657048    -0.007082261479
      41        0.006730646037    -0.004346715810    -0.007959127560
      42        0.006932674285     0.005898827874    -0.011258225466
      43       -0.009857208896    -0.006507351657    -0.008334560183
      44        0.000413235140    -0.008914540279    -0.006840350600
      45       -0.000419331347    -0.009679567196    -0.005706796399
      46       -0.006993724301    -0.003901160537    -0.011998169056
      47       -0.009170293135    -0.007090045450     0.008640973008
      48       -0.001220581316    -0.010814477241     0.002670549734
      49       -0.000554216832    -0.010278315080     0.003682451306
      50       -0.010601762469    -0.008562783265     0.003639948584
      51        0.003701430932     0.002279192522     0.013807777792
      52       -0.004279456922     0.005703183244     0.008626553899
      53       -0.002490261905     0.007170951559     0.008405768726
      54        0.008049252208     0.000309026855     0.001746991907
      55        0.004619442363    -0.003150507112     0.006195534818
      56        0.001526580558     0.010874218731     0.002437568670
      57        0.001886728495     0.010785640489     0.001434469420
      58        0.005687673386    -0.001188526806    -0.005854184076
      59        0.008362562261     0.000242977147     0.000191344588
      60       -0.001200689741     0.009275338718    -0.006115558292
      61       -0.002437152445     0.008537259328    -0.006894722597
      62       -0.000835771370    -0.005937183128    -0.005860885568
      63        0.004544464619    -0.002049182126    -0.006743823105
      64       -0.008907996923     0.003836789967    -0.005740462651
      65       -0.009623403082     0.002999535484    -0.004692702243
      66       -0.002469325181    -0.007711635884     0.002110631522
      67       -0.001659742704    -0.006696577892    -0.004711204258
      68       -0.010224451201     0.001907064880     0.003622322283
      69       -0.010054942743     0.002118508656     0.004319591175
      70        0.003084065243    -0.004303905511     0.006509816765
      71       -0.002011559584    -0.007249137857     0.003494440738
      72       -0.000302046498    -0.005976671719     0.011764140324
      73        0.008317211217     0.000275339958     0.010312970438
      74        0.012496149087     0.000008529467    -0.012073646571
      75       -0.004516073276    -0.013990430102     0.009229503024
      76        0.010833088881     0.002358113382     0.006663972765
      77        0.011942419639     0.003846416500    -0.003317834782
      78       -0.002149571829    -0.010454300137    -0.013740405845
      79        0.009722303664    -0.004061716700     0.013877005616
      80        0.010261798658     0.003022364968    -0.007643382541
      81        0.002492692993    -0.002151321616    -0.012707709868
      82       -0.007242866995    -0.015445032096     0.002810795069
      83        0.017087668158     0.002453577649    -0.001346303687
      84       -0.001479947343    -0.005064192641    -0.012010239402
      85       -0.007240110667    -0.009884215421    -0.004701979271
      86        0.004155322465    -0.008132965769     0.014914409686
      87        0.007437104240    -0.003483139840    -0.015414183590
      88       -0.007545725102    -0.010493067535     0.000054100036
      89       -0.003782006810    -0.008355939277     0.009149001691
      90        0.016349316847     0.001371615220     0.005651030725
      91       -0.006049042267    -0.013705796277    -0.008859717938
      92       -0.008072576160     0.002622547870    -0.000275091033
      93        0.001658861173     0.004806537422    -0.001380887549
      94       -0.005139324777    -0.001735587964     0.003345910394
      95       -0.000190782303     0.005702213919     0.001096349399
      96        0.000643415912     0.004791720020     0.002975386589
      97       -0.002414458892     0.003024366415    -0.004096601589
      98        0.000784246517     0.005164267714    -0.002100059374
      99       -0.005539801229     0.000500973025    -0.001043161987
     100       -0.003172923100     0.002477981788    -0.004001859681
     101       -0.004007479565     0.001284140046     0.003754918096
     102       -0.005412995336     0.000684240731     0.000134381953
     103        0.000937301427     0.005451354120     0.004410324043
     104        0.000956616557    -0.004032136258     0.003815094689
     105        0.005391991242    -0.000459971875    -0.001629709471
     106        0.004937235220    -0.001101357065     0.002509044908
     107        0.001882966367    -0.002739581084    -0.004539531673
     108        0.004988257846    -0.000650881602    -0.002564582861
     109       -0.001293853793    -0.005293865770    -0.001485731638
     110        0.001068019883    -0.003357210610    -0.004387912456
     111        0.000234980737    -0.004560673188     0.003310921348
     112       -0.001401707982    -0.005457484518    -0.000466289603
     113        0.004345608250    -0.001526030939     0.003241666765


*** tstop() called on atom at Sat Jul 25 19:46:51 2020
[...]
	  896 D(77,78,79,107) =    169.613891     0.000000     0.000919   169.614810
	  897 D(78,79,80,81)  =    137.494815     0.000000     0.000762   137.495576
	  898 D(79,80,81,82)  =     -0.043474    -0.000000     0.000283    -0.043192
	  899 D(80,79,78,106) =   -169.596254     0.000000    -0.000706  -169.596960
	  900 D(80,81,82,83)  =   -137.463640     0.000000    -0.000635  -137.464275
	  901 D(80,81,82,108) =     31.935409     0.000000     0.000871    31.936280
	  902 D(81,62,63,84)  =     -0.041915    -0.000000     0.000060    -0.041855
	  903 D(81,80,79,107) =    -31.923608    -0.000000    -0.000350   -31.923958
	  904 D(81,82,83,84)  =     -0.032355    -0.000000     0.000162    -0.032193
	  905 D(81,82,83,109) =    169.567856    -0.000000     0.001179   169.569035
	  906 D(82,83,84,85)  =    137.575144    -0.000000    -0.000413   137.574730
	  907 D(83,84,85,86)  =     -0.017198    -0.000000     0.000023    -0.017176
	  908 D(84,83,82,108) =   -169.592676     0.000000    -0.001104  -169.593780
	  909 D(84,85,86,87)  =   -137.683323     0.000000     0.001418  -137.681905
	  910 D(84,85,86,110) =     31.787549     0.000000     0.002706    31.790255
	  911 D(85,66,67,88)  =      0.058315     0.000000    -0.000160     0.058155
	  912 D(85,84,83,109) =    -31.863857    -0.000000    -0.001658   -31.865515
	  913 D(85,86,87,88)  =      0.028797     0.000000    -0.000141     0.028657
	  914 D(85,86,87,111) =    169.640488    -0.000000     0.001039   169.641528
	  915 D(86,87,88,89)  =    137.727080    -0.000000    -0.000474   137.726606
	  916 D(87,88,89,90)  =      0.035160     0.000000    -0.000353     0.034807
	  917 D(88,87,86,110) =   -169.602129     0.000000    -0.001192  -169.603320
	  918 D(88,89,90,91)  =   -137.550270    -0.000000    -0.001450  -137.551721
	  919 D(88,89,90,112) =     31.886981     0.000000    -0.000714    31.886267
	  920 D(89,88,87,111) =    -31.724336    -0.000000    -0.001898   -31.726234
	  921 D(89,90,91,113) =    169.573197    -0.000000     0.000634   169.573831
	  922 D(96,4,5,97)    =     -0.238559     0.000000     0.001429    -0.237130
	  923 D(98,6,7,99)    =      0.041115    -0.000000    -0.001122     0.039993
	  924 D(100,8,9,101)  =      0.046182     0.000000     0.001245     0.047427
	  925 D(102,10,11,103) =     -1.231633    -0.000000    -0.005942    -1.237575
	  926 D(104,74,75,105) =      0.032276     0.000000    -0.000221     0.032055
	  927 D(106,78,79,107) =     -0.017331     0.000000     0.000187    -0.017144
	  928 D(108,82,83,109) =      0.007534    -0.000000    -0.000087     0.007448
	  929 D(110,86,87,111) =      0.009562    -0.000000    -0.000012     0.009551
	  930 D(112,90,91,113) =     -0.025197    -0.000000     0.000099    -0.025098
	  931 R(1,11)         =      3.124650    -0.000023    -0.000141     3.124509
	 ---------------------------------------------------------------------------
	Successfully symmetrized geometry.

  ==> Convergence Check <==

  Measures of convergence in internal coordinates in au.
  Criteria marked as inactive (o), active & met (*), and active & unmet ( ).
  ---------------------------------------------------------------------------------------------
   Step     Total Energy     Delta E     MAX Force     RMS Force      MAX Disp      RMS Disp   
  ---------------------------------------------------------------------------------------------
    Convergence Criteria    1.00e-06 *    3.00e-04 *             o    1.20e-03 *             o
  ---------------------------------------------------------------------------------------------
      8   -3476.94950379   -2.47e-06      2.10e-05 *    2.66e-06 o    1.19e-03 *    1.01e-04 o  ~
  ---------------------------------------------------------------------------------------------


  **** Optimization is complete! (in 8 steps) ****

  ==> Optimization Summary <==

  Measures of convergence in internal coordinates in au.
  --------------------------------------------------------------------------------------------------------------- ~
   Step         Total Energy             Delta E       MAX Force       RMS Force        MAX Disp        RMS Disp  ~
  --------------------------------------------------------------------------------------------------------------- ~
      1   -3476.881056818858  -3476.881056818858      0.03134328      0.00776231      0.06010340      0.01538316  ~
      2   -3476.942200326813     -0.061143507955      0.00592223      0.00128599      0.05507421      0.01528573  ~
      3   -3476.948610003185     -0.006409676373      0.00230982      0.00045505      0.03195445      0.00677389  ~
      4   -3476.949418054610     -0.000808051424      0.00069508      0.00016390      0.01409792      0.00160190  ~
      5   -3476.949488034691     -0.000069980081      0.00023114      0.00004196      0.00689820      0.00064371  ~
      6   -3476.949498277922     -0.000010243232      0.00005047      0.00000793      0.00457160      0.00035826  ~
      7   -3476.949501320628     -0.000003042705      0.00003695      0.00000446      0.00335517      0.00029767  ~
      8   -3476.949503791730     -0.000002471102      0.00002098      0.00000266      0.00119451      0.00010131  ~
  --------------------------------------------------------------------------------------------------------------- ~

	Writing optimization data to binary file.
	Final energy is  -3476.9495037917295
	Final (previous) structure:
	Cartesian Geometry (in Angstrom)
	    C     2.0385819898  -5.7959313895  -4.1366108255
	    C     1.0976419941  -4.9124642798  -3.3456583466
	    C     0.3246123693  -5.5039367277  -2.3449314199
	    C     0.0981024873  -5.9408717478   0.6235319078
	    C     0.6316537208  -5.6551700100   1.8737412204
	    C     2.8003161553  -4.1958474178   3.3059917516
	    C     3.9093219780  -3.3807745938   3.1204609656
	    C     5.5727640883  -2.0228783407   1.0498982278
	    C     5.7163812503  -1.8138975159  -0.3157185127
	    C     4.5671223277  -2.4226273662  -3.0094239432
	    C     3.5573459922  -3.1039984866  -3.6780348386
	    C     2.2138533743  -2.6159893813  -3.6747995372
	    C     1.0385368096  -3.4792473234  -3.4953293379
	    C    -0.1573633114  -2.8484277249  -3.0286543949
	    C    -0.9654309052  -3.4924508428  -2.0299173327
	    C    -0.5433170246  -4.7479869935  -1.5100156626
	    C    -0.6825574374  -4.9718388262  -0.0709515549
	    C    -1.2520072554  -3.9250353693   0.7135328974
	    C    -0.6962359665  -3.6268786690   2.0067473212
	    C     0.4139058652  -4.3848516140   2.4837793763
	    C     1.4820007570  -3.6663449525   3.1829388969
	    C     1.3456183091  -2.2547601366   3.3313637811
	    C     2.4947902217  -1.4101477099   3.1385158768
	    C     3.7491100857  -1.9997742680   2.8033519731
	    C     4.5669218068  -1.3322884945   1.7879755990
	    C     4.0553971452  -0.1357163643   1.2047832458
	    C     4.2045552310   0.0807566285  -0.2097220286
	    C     4.8617451472  -0.9037596498  -1.0040301239
	    C     4.2935586376  -1.2094514967  -2.3180538456
	    C     3.1166451545  -0.5105184945  -2.7160776156
	    C     2.0669151854  -1.2190026694  -3.3994658880
	    C     0.7663986840  -0.6056725578  -3.4509481374
	    C    -0.3747080569  -1.4430232402  -3.2564767289
	    C    -1.6119509075  -0.8403640624  -2.8811238939
	    C    -2.4213461899  -1.4961033834  -1.8782221188
	    C    -1.9392295871  -2.7120985269  -1.3163933555
	    C    -2.0904755737  -2.9350904176   0.0883877806
	    C    -2.7179926540  -1.9289168325   0.8784304686
	    C    -2.1581758210  -1.6281490739   2.1784270691
	    C    -1.0068371296  -2.3531893025   2.6040657003
	    C     0.0396192830  -1.6500561876   3.2802679958
	    C    -0.1045291002  -0.2494791879   3.5026369351
	    C     1.0506885688   0.5996415181   3.3064789587
	    C     2.2755786339  -0.0065884034   2.9027634065
	    C     3.0751339841   0.6463548597   1.9125133702
	    C     2.6188733926   1.8802294818   1.3641900015
	    C     2.7710736509   2.0989413496  -0.0581627985
	    C     3.3675957458   1.0681635516  -0.8405495838
	    C     2.8115209435   0.7659903332  -2.1235866140
	    C     1.6852045744   1.5103541357  -2.5779215355
	    C     0.6282030938   0.8012501243  -3.2643205245
	    C    -0.6688506776   1.3910470561  -3.2983767121
	    C    -1.8117252057   0.5534710883  -3.1023449226
	    C    -3.0517272558   1.1733318375  -2.7110318605
	    C    -3.8559753871   0.5187328852  -1.7129008151
	    C    -3.3771859727  -0.7211055314  -1.1601239376
	    C    -3.5288376295  -0.9419070610   0.2450738030
	    C    -4.1534372436   0.0889570432   1.0325040648
	    C    -3.5977820383   0.3876977293   2.3260425193
	    C    -2.4462146151  -0.3596965970   2.7617059613
	    C    -1.3989247190   0.3433364776   3.4364897479
	    C    -1.5519383777   1.7604307409   3.6430124550
	    C    -0.4032770798   2.6046164720   3.4456521439
	    C     0.8367490234   1.9860737400   3.0544078405
	    C     1.6361723858   2.6390474133   2.0639479502
	    C     1.1579832994   3.8797414188   1.5110109382
	    C     1.3112941731   4.0986986665   0.0968701073
	    C     1.9330429189   3.0642526595  -0.6886417752
	    C     1.3808136489   2.7651126848  -1.9737134705
	    C     0.2335452037   3.5150920445  -2.4145279145
	    C    -0.8199510162   2.8087409901  -3.0946359310
	    C    -2.1092675019   3.4085820562  -3.2013713034
	    C    -3.2794130295   2.5512483473  -2.9993438285
	    C    -4.5520781762   3.0785840861  -2.6307659737
	    C    -5.3282266980   2.4462123062  -1.6681529165
	    C    -4.8667585235   1.2574236511  -1.0301223560
	    C    -5.0231812801   1.0314721931   0.4084968388
	    C    -5.6481673521   1.9859136005   1.2639272825
	    C    -5.1124624777   2.2739688036   2.5124148625
	    C    -3.9269694874   1.6210331179   2.9616318094
	    C    -2.8543403219   2.3408488706   3.6518887019
	    C    -2.9273114684   3.7400383064   3.9174859461
	    C    -1.8188198706   4.5546199605   3.7262623294
	    C    -0.5871281474   4.0067170937   3.2614744191
	    C     0.2311523168   4.6751102496   2.2470275547
	    C    -0.1517681480   5.9164828036   1.6589480743
	    C    -0.0031331521   6.1283531285   0.2944847391
	    C     0.5346883716   5.1082279062  -0.5444012182
	    C    -0.0293923518   4.8028544374  -1.8610145589
	    C    -1.1519225312   5.5064877188  -2.3885808806
	    C    -2.1689497989   4.8246735829  -3.0439353808
	    H     2.9959992730  -5.9728529426  -3.6111246874
	    H     1.5753739316  -6.7846290018  -4.2947447208
	    H     2.2699195911  -5.3725757190  -5.1271895859
	    H     0.5012472500  -6.5639993992  -2.1272794849
	    H     0.4298508811  -6.8471241492   0.1071791884
	    H     1.3625180370  -6.3490461876   2.3002369463
	    H     2.9526605435  -5.2772686968   3.3766138274
	    H     4.8961842173  -3.8486719591   3.0507613078
	    H     6.1228535596  -2.8479540650   1.5128304036
	    H     6.3738378839  -2.4820404899  -0.8805979434
	    H     5.5364701227  -2.9167980892  -2.8901697375
	    H     3.7857362325  -4.0943583252  -4.0715895527
	    H    -4.8528277502   4.0736127354  -2.9730117234
	    H    -6.2129699419   2.9653073393  -1.2867863045
	    H    -6.4512169433   2.6228302983   0.8803301394
	    H    -5.5122028804   3.1277964950   3.0681368254
	    H    -3.8962745575   4.2123308593   4.1064330221
	    H    -1.9538474249   5.6397035452   3.7714769599
	    H    -0.7220987541   6.6463240547   2.2418077741
	    H    -0.4615111680   7.0176395316  -0.1490291924
	    H    -1.3083358501   6.5592620074  -2.1338718277
	    H    -3.0907976403   5.3643194878  -3.2819736231
	Saving final (previous) structure.
			--------------------------
			 OPTKING Finished Execution 
			--------------------------

    Final optimized geometry and variables:
    Molecular point group: c1
    Full point group: C1

    Geometry (in Angstrom), charge = 0, multiplicity = 1:

    C            2.038581997791    -5.795931412271    -4.136610841740
    C            1.097641998451    -4.912464299101    -3.345658359768
    C            0.324612370574    -5.503936749350    -2.344931429159
    C            0.098102487731    -5.940871771150     0.623531910254
    C            0.631653723266    -5.655170032233     1.873741227799
    C            2.800316166304    -4.195847434301     3.305991764574
    C            3.909321993376    -3.380774607114     3.120460977833
    C            5.572764110204    -2.022878348660     1.049898231941
    C            5.716381272750    -1.813897523067    -0.315718513937
    C            4.567122345691    -2.422627375749    -3.009423954979
    C            3.557346006214    -3.103998498760    -3.678034853097
    C            2.213853382954    -2.615989391549    -3.674799551662
    C            1.038536813720    -3.479247337111    -3.495329351677
    C           -0.157363312048    -2.848427736132    -3.028654406803
    C           -0.965430909027    -3.492450856525    -2.029917340723
    C           -0.543317026702    -4.747987012159    -1.510015668578
    C           -0.682557440110    -4.971838845731    -0.070951555154
    C           -1.252007260351    -3.925035384722     0.713532900186
    C           -0.696235969230    -3.626878683211     2.006747329075
    C            0.413905866871    -4.384851631186     2.483779386062
    C            1.482000762840    -3.666344966943     3.182938909383
    C            1.345618314355    -2.254760145493     3.331363794192
    C            2.494790231462    -1.410147715467     3.138515889142
    C            3.749110100401    -1.999774275843     2.803351984135
    C            4.566921824788    -1.332288499778     1.787975605978
    C            4.055397161126    -0.135716364839     1.204783250518
    C            4.204555247521     0.080756628821    -0.209722029377
    C            4.861745166316    -0.903759653361    -1.004030127896
    C            4.293558654472    -1.209451501409    -2.318053854678
    C            3.116645166766    -0.510518496525    -2.716077626311
    C            2.066915193499    -1.219002674199    -3.399465901411
    C            0.766398686971    -0.605672560163    -3.450948150935
    C           -0.374708058324    -1.443023245870    -3.256476741724
    C           -1.611950913834    -0.840364065738    -2.881123905200
    C           -2.421346199453    -1.496103389327    -1.878222126163
    C           -1.939229594756    -2.712098537588    -1.316393360710
    C           -2.090475581923    -2.935090429127     0.088387780977
    C           -2.717992664718    -1.928916840035     0.878430472015
    C           -2.158175829524    -1.628149080347     2.178427077671
    C           -1.006837133522    -2.353189311789     2.604065710515
    C            0.039619283178    -1.650056194122     3.280268008707
    C           -0.104529100643    -0.249479188924     3.502636948910
    C            1.050688572918     0.599641520430     3.306478971659
    C            2.275578642812    -0.006588403445     2.902763417946
    C            3.075133996221     0.646354862289     1.912513377687
    C            2.618873402878     1.880229489176     1.364190006898
    C            2.771073661786     2.098941357880    -0.058162798729
    C            3.367595759078     1.068163555805    -0.840549587134
    C            2.811520954600     0.765990336211    -2.123586622377
    C            1.685204581034     1.510354141633    -2.577921545626
    C            0.628203096313     0.801250127417    -3.264320537309
    C           -0.668850680248     1.391047061549    -3.298376725021
    C           -1.811725212831     0.553471090442    -3.102344934805
    C           -3.051727267790     1.173331842069    -2.711031871116
    C           -3.855975402258     0.518732887271    -1.712900821814
    C           -3.377185986017    -0.721105534264    -1.160123942210
    C           -3.528837643405    -0.941907064674     0.245073803959
    C           -4.153437259885     0.088957043590     1.032504068865
    C           -3.597782052459     0.387697730812     2.326042528448
    C           -2.446214624760    -0.359696598415     2.761705972122
    C           -1.398924724471     0.343336478912     3.436489761383
    C           -1.551938383771     1.760430747832     3.643012469355
    C           -0.403277081381     2.604616482266     3.445652157398
    C            0.836749026690     1.986073747853     3.054407852471
    C            1.636172392246     2.639047423626     2.063947958349
    C            1.157983303930     3.879741434086     1.511010944145
    C            1.311294178259     4.098698682569     0.096870107715
    C            1.933042926524     3.064252671570    -0.688641777920
    C            1.380813654372     2.765112695684    -1.973713478287
    C            0.233545204639     3.515092058291    -2.414527924001
    C           -0.819951019460     2.808741001110    -3.094635943188
    C           -2.109267510190     3.408582069599    -3.201371315976
    C           -3.279413042376     2.551248357298    -2.999343840337
    C           -4.552078194112     3.078584098224    -2.630765984051
    C           -5.328226718921     2.446212315855    -1.668152923074
    C           -4.866758542580     1.257423656058    -1.030122360018
    C           -5.023181299805     1.031472197128     0.408496840381
    C           -5.648167374332     1.985913608304     1.263927287424
    C           -5.112462497774     2.273968812509     2.512414872351
    C           -3.926969502810     1.621033124265     2.961631821012
    C           -2.854340333146     2.340848879843     3.651888716266
    C           -2.927311479897     3.740038321113     3.917485961543
    C           -1.818819877741     4.554619978362     3.726262343997
    C           -0.587128149669     4.006717109438     3.261474431907
    C            0.231152317751     4.675110267959     2.247027563509
    C           -0.151768148551     5.916482826814     1.658948080804
    C           -0.003133152146     6.128353152559     0.294484740303
    C            0.534688373739     5.108227926247    -0.544401220360
    C           -0.029392351877     4.802854456284    -1.861014566213
    C           -1.151922535704     5.506487740434    -2.388580889953
    C           -2.168949807415     4.824673601866    -3.043935392812
    H            2.995999284819    -5.972852966063    -3.611124701631
    H            1.575373937794    -6.784629028479    -4.294744737729
    H            2.269919600066    -5.372575740153    -5.127189606067
    H            0.501247251988    -6.563999424959    -2.127279493228
    H            0.429850882813    -6.847124176120     0.107179188774
    H            1.362518042342    -6.349046212566     2.300236955385
    H            2.952660555126    -5.277268717529     3.376613840679
    H            4.896184236593    -3.848671974188     3.050761319809
    H            6.122853583659    -2.847954076175     1.512830409516
    H            6.373837908978    -2.482040499613    -0.880597946880
    H            5.536470144491    -2.916798100636    -2.890169748810
    H            3.785736247361    -4.094358341247    -4.071589568708
    H           -4.852827769229     4.073612751406    -2.973011735079
    H           -6.212969966327     2.965307350961    -1.286786309592
    H           -6.451216968623     2.622830308623     0.880330142838
    H           -5.512202902068     3.127796507252     3.068136837493
    H           -3.896274572850     4.212330875834     4.106433038272
    H           -1.953847432576     5.639703567394     3.771476974746
    H           -0.722098756909     6.646324080850     2.241807782862
    H           -0.461511169765     7.017639559201    -0.149029192950
    H           -1.308335855237     6.559262033171    -2.133871836132
    H           -3.090797652410     5.364319508905    -3.281973636002

	Cleaning optimization helper files.

    Psi4 stopped on: Monday, 27 July 2020 06:23PM
    Psi4 wall time for execution: 2 days, 7:39:25.18

*** Psi4 exiting successfully. Buy a developer a beer!
Optimizer: Optimization complete!
