
    -----------------------------------------------------------------------
          Psi4: An Open-Source Ab Initio Electronic Structure Package
                               Psi4 1.4rc2.dev99 

                         Git: Rev {master} c4c438c 


    D. G. A. Smith, L. A. Burns, A. C. Simmonett, R. M. Parrish,
    M. C. Schieber, R. Galvelis, P. Kraus, H. Kruse, R. Di Remigio,
    A. Alenaizan, A. M. James, S. Lehtola, J. P. Misiewicz, M. Scheurer,
    R. A. Shaw, J. B. Schriber, Y. Xie, Z. L. Glick, D. A. Sirianni,
    J. S. O'Brien, J. M. Waldrop, A. Kumar, E. G. Hohenstein,
    B. P. Pritchard, B. R. Brooks, H. F. Schaefer III, A. Yu. Sokolov,
    K. Patkowski, A. E. DePrince III, U. Bozkaya, R. A. King,
    F. A. Evangelista, J. M. Turney, T. D. Crawford, C. D. Sherrill,
    J. Chem. Phys. 152(18) 184108 (2020). https://doi.org/10.1063/5.0006002

                            Additional Code Authors
    E. T. Seidl, C. L. Janssen, E. F. Valeev, M. L. Leininger,
    J. F. Gonthier, R. M. Richard, H. R. McAlexander, M. Saitow, X. Wang,
    P. Verma, and M. H. Lechner

             Previous Authors, Complete List of Code Contributors,
                       and Citations for Specific Modules
    https://github.com/psi4/psi4/blob/master/codemeta.json
    https://github.com/psi4/psi4/graphs/contributors
    http://psicode.org/psi4manual/master/introduction.html#citing-psifour

    -----------------------------------------------------------------------


    Psi4 started on: Sunday, 06 June 2021 02:09PM

    Process ID: 3377406
    Host:       skylm001.palmetto.clemson.edu
    PSIDATADIR: /home/adamcronin/.conda/envs/p4env/share/psi4
    Memory:     500.0 MiB
    Threads:    1
    
  ==> Input File <==

--------------------------------------------------------------------------
molecule{
0 2
C    -2.6360700524 -11.5123670108   1.1699305486
C     0.8054688281   9.4652716921  -4.6210538683
C     1.7283704961   9.7658306875  -3.6431096263
C     2.1445240527   8.7602461625  -2.7015682675
C     2.3097047785   9.0432803833  -1.2925271496
C     2.0579398243  10.3451595047  -0.7363556897
C     1.3916568455  10.4750190427   0.4637161996
C     0.9395879643   9.3102074146   1.1754892896
C    -0.3630634260   9.2453184347   1.8012224274
C    -1.2905164305  10.3432954603   1.7601009971
C    -2.6294644274  10.1172674511   1.5227349776
C    -3.1158610155   8.7805997282   1.3103901211
C    -4.0851701398   8.4663099757   0.2846128519
C    -4.6277064601   9.4697391438  -0.5911744424
C    -4.7848901677   9.2115970119  -1.9360605789
C    -4.4125490986   7.9338207496  -2.4810597441
C    -3.7131729501   7.8045469969  -3.7397205509
C    -3.3354888919   8.9441148519  -4.5315916733
C    -2.0936647782   8.9979286291  -5.1273554512
C    -1.1587245834   7.9164337163  -4.9639022018
C     0.2462741625   8.1431169632  -4.7139258309
C     1.0040677129   7.0837857140  -4.1235723407
C     1.9685396596   7.4004093366  -3.0987437764
C     2.4138232774   6.3424685398  -2.2368668241
C     2.5890153399   6.6217853656  -0.8514117696
C     2.2975508803   7.9452018310  -0.3790898745
C     1.6030925742   8.0812387727   0.8763894905
C     1.2435503236   6.8856584482   1.5853764567
C    -0.0415716067   6.8205781939   2.1952856627
C    -0.9121355961   7.9554644942   2.0776029165
C    -2.3107990105   7.7183193567   1.8243878620
C    -2.7556447779   6.3590997365   1.6965038940
C    -3.7090866243   6.0492785977   0.6849903808
C    -4.1824796597   7.1107028587  -0.1575664827
C    -4.3534785338   6.8403947416  -1.5626817225
C    -4.0496963397   5.5223776539  -2.0425482167
C    -3.3640969644   5.3954644641  -3.2846749916
C    -3.0059906926   6.5886442652  -3.9938240784
C    -1.7071640915   6.6443590458  -4.6151654985
C    -0.8423770109   5.5046708865  -4.4860440786
C     0.5398015505   5.7312480869  -4.2267644547
C     1.3186578064   4.6568433415  -3.6670811886
C     2.2807887818   4.9739929628  -2.6531686334
C     2.7540792570   3.9315548374  -1.7981814144
C     2.9411999659   4.2136224253  -0.3996608496
C     2.6333179714   5.5249274933   0.0758191241
C     1.9459135364   5.6600809653   1.3247337969
C     1.5926590571   4.4766948007   2.0461058509
C     0.2922780694   4.4098292744   2.6567901889
C    -0.5853607361   5.5307313731   2.5203343710
C    -1.9728568364   5.2936930604   2.2590959127
C    -2.4275660920   3.9426567639   2.1373213733
C    -3.3843793433   3.6284546554   1.1113015273
C    -3.8491623300   4.6819101844   0.2625697514
C    -4.0298882424   4.4135520106  -1.1299598840
C    -3.7402743905   3.0999727325  -1.6232710045
C    -3.0692670170   2.9712311432  -2.8849433753
C    -2.6891766559   4.1616973847  -3.5784506076
C    -1.3996955495   4.2142727815  -4.1907091789
C    -0.5377108353   3.0711377093  -4.0700037167
C     0.8591283823   3.3110156563  -3.7862040812
C     1.6284593718   2.2534662550  -3.2037977699
C     2.6022177864   2.5681978989  -2.2044605914
C     3.0799906289   1.5178883610  -1.3470501872
C     3.2710666628   1.7976144758   0.0438510041
C     2.9702206613   3.1180936294   0.5234044180
C     2.2833558970   3.2518866396   1.7716162318
C     1.9219234778   2.0580488895   2.4874788311
C     0.6263684431   1.9915123709   3.0913556556
C    -0.2537121343   3.1203445539   2.9599061847
C    -1.6386557159   2.8825660215   2.6887391057
C    -2.0867846365   1.5237943701   2.5521491861
C    -3.0252272544   1.2114361304   1.5226088962
C    -3.4981663310   2.2677332030   0.6749460283
C    -3.6770973825   1.9982119241  -0.7167267917
C    -3.3767615620   0.6785259843  -1.2245278195
C    -2.8023205267   0.5458952428  -2.5050761946
C    -2.4136660962   1.7358512997  -3.1925572559
C    -1.0987180912   1.7957383781  -3.7780449532
C    -0.2238809537   0.6538497525  -3.5814691373
C     1.1609214161   0.8991386641  -3.3023673669
C     1.9502715167  -0.1578079661  -2.7568188325
C     2.9406221619   0.1574698213  -1.7613809184
C     3.4075979903  -0.8908614382  -0.9102276768
C     3.5996233513  -0.6141236566   0.4811736499
C     3.3090061574   0.7019139506   0.9655046218
C     2.6178606438   0.8346486081   2.2184695064
C     2.2501667551  -0.3569044725   2.9248468489
C     0.9544284247  -0.4243495590   3.5282881223
C     0.0786909628   0.7032951495   3.3998657547
C    -1.3068128065   0.4652112114   3.1218856911
C    -1.7592202037  -0.8877204820   2.9877608917
C    -2.6979469542  -1.2008744810   1.9586321796
C    -3.1485969664  -0.1520878867   1.0854047086
C    -3.3408891571  -0.4289314192  -0.2995055260
C    -3.0485060952  -1.7568247859  -0.7841744871
C    -2.4679384601  -1.9315206181  -2.0569420531
C    -2.2622600204  -0.7762820127  -3.0209065692
C    -0.7588102900  -0.6281864487  -3.3247403018
C     0.0996378776  -1.7360116025  -3.1468331198
C     1.4861609591  -1.5035973740  -2.8651954113
C     2.2819515770  -2.5706928407  -2.3267602217
C     3.2577128779  -2.2578983384  -1.3288550075
C     3.7393199014  -3.3081660578  -0.4853692701
C     3.9290255592  -3.0318446653   0.9140461201
C     3.6291728610  -1.7180421792   1.4003373861
C     2.9416687993  -1.5871489019   2.6485540558
C     2.5787019832  -2.7771617012   3.3594537875
C     1.2772018348  -2.8438552427   3.9677746861
C     0.4031467281  -1.7162121413   3.8341168684
C    -0.9820739222  -1.9520470312   3.5619982116
C    -1.4439334134  -3.3020981111   3.4458869138
C    -2.4021926410  -3.6160705240   2.4210191944
C    -2.8435114437  -2.5677377116   1.5493587737
C    -3.0229740919  -2.8507878634   0.1602806169
C    -2.7597838726  -4.1743887435  -0.3077431437
C    -2.0858677212  -4.3212873640  -1.5656738304
C    -1.7547160708  -3.1429608036  -2.3092522757
C    -0.4414210236  -3.0597933615  -2.8959591802
C     0.4421783395  -4.1666409139  -2.7524543011
C     1.8385821806  -3.9245569315  -2.4693585339
C     2.6244380330  -4.9787859642  -1.9152003269
C     3.5913611561  -4.6659837703  -0.9044114250
C     4.0578867425  -5.7218907936  -0.0495494484
C     4.2369722724  -5.4507531884   1.3370227683
C     3.9500731976  -4.1306898741   1.8264404244
C     3.2608154299  -4.0016687194   3.0750666732
C     2.8869632718  -5.2010710799   3.7720364474
C     1.5990797835  -5.2671404996   4.3765311491
C     0.7264157372  -4.1305078678   4.2639741682
C    -0.6614219449  -4.3638687114   4.0014773015
C    -1.1156424797  -5.7208460752   3.8751087459
C    -2.0716392543  -6.0304820747   2.8658536148
C    -2.5418700624  -4.9777928001   2.0090799184
C    -2.7238178727  -5.2646306758   0.6210121343
C    -2.4179734286  -6.5865985919   0.1484733871
C    -1.7289341652  -6.7241365949  -1.0889153280
C    -1.3791581276  -5.5375632582  -1.8202821531
C    -0.0896343195  -5.4620324747  -2.4291728990
C     0.7936761939  -6.5836924770  -2.2795432241
C     2.1748565853  -6.3423342120  -2.0280138713
C     2.9707183149  -7.4060388524  -1.4891488540
C     3.9415318155  -7.0886532266  -0.4709755716
C     4.4485296595  -8.1329212880   0.3597499088
C     4.6181549919  -7.8595206178   1.7696345029
C     4.2774343431  -6.5577718990   2.2489986140
C     3.5793307203  -6.4297221245   3.5032460787
C     3.2409457652  -7.6096855424   4.2334256065
C     1.9332763281  -7.6778480359   4.8472141536
C     1.0573324092  -6.5594809595   4.6898338488
C    -0.3407188963  -6.7930606068   4.4324777763
C    -0.8198541199  -8.1375333034   4.3444539053
C    -1.8015268878  -8.4462689310   3.3323293093
C    -2.2241536789  -7.3966247949   2.4633020061
C    -2.4013638303  -7.6906907093   1.0652589100
C    -2.1630327771  -9.0187516620   0.5874238766
C    -1.4328881093  -9.1511616411  -0.6581790744
C    -1.0406841748  -7.9545614212  -1.3449817269
C     0.2592337210  -7.8791988865  -1.9614687641
C     1.1364552527  -9.0029813751  -1.8783710824
C     2.5402240591  -8.7609387556  -1.6382848451
C     3.4203903268  -9.7774962442  -1.1271320341
C     4.3494396507  -9.4730136253  -0.1563194687
C     4.6873961504  -8.9082455162   2.7510525224
C     4.0171472569  -8.7866626309   3.9494919386
C     1.3244230809  -8.9287298323   5.2118479697
C    -0.0131996910  -9.1523800568   4.9648919750
C    -2.1100827270  -9.7796313315   2.8989543098
C    -2.3187110884 -10.0856572081   1.5653801787
C    -0.7257440477 -10.3469804226  -1.0373730958
C     0.5204560212 -10.2747779744  -1.6232174643
H    -1.7354286755 -12.1123048360   0.9738306792
H    -3.1749154232 -12.0131956197   1.9838029423
H    -3.2737276566 -11.5631150514   0.2807832318
H     0.3938420921  10.2742015868  -5.2323161769
H     2.0321881225  10.8070107391  -3.4983950523
H     2.2604923318  11.2404115603  -1.3319671416
H     1.0792880793  11.4704487727   0.7936733805
H    -0.9177353023  11.3720536953   1.7698050449
H    -3.2909258830  10.9716147417   1.3499321123
H    -4.7784583167  10.4894962211  -0.2242081592
H    -5.0568249916  10.0320246673  -2.6071570658
H    -3.9706965709   9.8350463174  -4.5432182239
H    -1.7704678066   9.9308258726  -5.5991421596
H     3.2598622509 -10.8245982889  -1.4014835737
H     4.9087739952 -10.2838253039   0.3201145572
H     5.1467451784  -9.8672568865   2.4929891762
H     3.9593493655  -9.6520985238   4.6165808366
H     1.9506570687  -9.7618284818   5.5448604032
H    -0.4194721006 -10.1591263862   5.1026952479
H    -2.0948421995 -10.6018229097   3.6239783960
H    -1.1048410844 -11.3265610303  -0.7445858237
H     1.0929795485 -11.1970037063  -1.7603335982
H    -2.7997842844  -1.0200586829  -3.9683979346
}
memory 65 GB
set reference uhf
set basis 6-31G(d)
set maxiter 1000
optimize('pbe')
--------------------------------------------------------------------------

  Memory set to  60.536 GiB by Python driver.

Scratch directory: /scratch1/adamcronin/
gradient() will perform analytic gradient computation.

*** tstart() called on skylm001.palmetto.clemson.edu
*** at Sun Jun  6 14:09:28 2021

   => Loading Basis Set <=

    Name: 6-31G(D)
    Role: ORBITAL
    Keyword: BASIS
    atoms 1-171   entry C          line   111 file /home/adamcronin/.conda/envs/p4env/share/psi4/basis/6-31g_d_.gbs 
    atoms 172-194 entry H          line    44 file /home/adamcronin/.conda/envs/p4env/share/psi4/basis/6-31g_d_.gbs 


         ---------------------------------------------------------
                                   SCF
               by Justin Turney, Rob Parrish, Andy Simmonett
                          and Daniel G. A. Smith
                              UKS Reference
                        1 Threads,  61988 MiB Core
         ---------------------------------------------------------

  ==> Geometry <==

    Molecular point group: c1
    Full point group: C1

    Geometry (in Angstrom), charge = 0, multiplicity = 2:

       Center              X                  Y                   Z               Mass       
    ------------   -----------------  -----------------  -----------------  -----------------
         C           -2.636504294467   -11.512198705530     1.169659074976    12.000000000000
         C            0.805034586033     9.465439997370    -4.621325341924    12.000000000000
         C            1.727936254033     9.765998992770    -3.643381099924    12.000000000000
         C            2.144089810633     8.760414467770    -2.701839741124    12.000000000000
         C            2.309270536433     9.043448688570    -1.292798623224    12.000000000000
         C            2.057505582233    10.345327809970    -0.736627163324    12.000000000000
         C            1.391222603433    10.475187347970     0.463444725976    12.000000000000
         C            0.939153722233     9.310375719870     1.175217815976    12.000000000000
         C           -0.363497668067     9.245486739970     1.800950953776    12.000000000000
         C           -1.290950672567    10.343463765570     1.759829523476    12.000000000000
         C           -2.629898669467    10.117435756370     1.522463503976    12.000000000000
         C           -3.116295257567     8.780768033470     1.310118647476    12.000000000000
         C           -4.085604381867     8.466478280970     0.284341378276    12.000000000000
         C           -4.628140702167     9.469907449070    -0.591445916024    12.000000000000
         C           -4.785324409767     9.211765317170    -1.936332052524    12.000000000000
         C           -4.412983340667     7.933989054870    -2.481331217724    12.000000000000
         C           -3.713607192167     7.804715302170    -3.739992024524    12.000000000000
         C           -3.335923133967     8.944283157170    -4.531863146924    12.000000000000
         C           -2.094099020267     8.998096934370    -5.127626924824    12.000000000000
         C           -1.159158825467     7.916602021570    -4.964173675424    12.000000000000
         C            0.245839920433     8.143285268470    -4.714197304524    12.000000000000
         C            1.003633470833     7.083954019270    -4.123843814324    12.000000000000
         C            1.968105417533     7.400577641870    -3.099015250024    12.000000000000
         C            2.413389035333     6.342636845070    -2.237138297724    12.000000000000
         C            2.588581097833     6.621953670870    -0.851683243224    12.000000000000
         C            2.297116638233     7.945370136270    -0.379361348124    12.000000000000
         C            1.602658332133     8.081407077970     0.876118016876    12.000000000000
         C            1.243116081533     6.885826753470     1.585104983076    12.000000000000
         C           -0.042005848767     6.820746499170     2.195014189076    12.000000000000
         C           -0.912569838167     7.955632799470     2.077331442876    12.000000000000
         C           -2.311233252567     7.718487661970     1.824116388376    12.000000000000
         C           -2.756079019967     6.359268041770     1.696232420376    12.000000000000
         C           -3.709520866367     6.049446902970     0.684718907176    12.000000000000
         C           -4.182913901767     7.110871163970    -0.157837956324    12.000000000000
         C           -4.353912775867     6.840563046870    -1.562953196124    12.000000000000
         C           -4.050130581767     5.522545959170    -2.042819690324    12.000000000000
         C           -3.364531206467     5.395632769370    -3.284946465224    12.000000000000
         C           -3.006424934667     6.588812570470    -3.994095552024    12.000000000000
         C           -1.707598333567     6.644527351070    -4.615436972124    12.000000000000
         C           -0.842811252967     5.504839191770    -4.486315552224    12.000000000000
         C            0.539367308433     5.731416392170    -4.227035928324    12.000000000000
         C            1.318223564333     4.657011646770    -3.667352662224    12.000000000000
         C            2.280354539733     4.974161268070    -2.653440107024    12.000000000000
         C            2.753645014933     3.931723142670    -1.798452888024    12.000000000000
         C            2.940765723833     4.213790730570    -0.399932323224    12.000000000000
         C            2.632883729333     5.525095798570     0.075547650476    12.000000000000
         C            1.945479294333     5.660249270570     1.324462323276    12.000000000000
         C            1.592224815033     4.476863105970     2.045834377276    12.000000000000
         C            0.291843827333     4.409997579670     2.656518715276    12.000000000000
         C           -0.585794978167     5.530899678370     2.520062897376    12.000000000000
         C           -1.973291078467     5.293861365670     2.258824439076    12.000000000000
         C           -2.428000334067     3.942825069170     2.137049899676    12.000000000000
         C           -3.384813585367     3.628622960670     1.111030053676    12.000000000000
         C           -3.849596572067     4.682078489670     0.262298277776    12.000000000000
         C           -4.030322484467     4.413720315870    -1.130231357624    12.000000000000
         C           -3.740708632567     3.100141037770    -1.623542478124    12.000000000000
         C           -3.069701259067     2.971399448470    -2.885214848924    12.000000000000
         C           -2.689610897967     4.161865689970    -3.578722081224    12.000000000000
         C           -1.400129791567     4.214441086770    -4.190980652524    12.000000000000
         C           -0.538145077367     3.071306014570    -4.070275190324    12.000000000000
         C            0.858694140233     3.311183961570    -3.786475554824    12.000000000000
         C            1.628025129733     2.253634560270    -3.204069243524    12.000000000000
         C            2.601783544333     2.568366204170    -2.204732065024    12.000000000000
         C            3.079556386833     1.518056666270    -1.347321660824    12.000000000000
         C            3.270632420733     1.797782781070     0.043579530476    12.000000000000
         C            2.969786419233     3.118261934670     0.523132944376    12.000000000000
         C            2.282921654933     3.252054944870     1.771344758176    12.000000000000
         C            1.921489235733     2.058217194770     2.487207357476    12.000000000000
         C            0.625934201033     1.991680676170     3.091084181976    12.000000000000
         C           -0.254146376367     3.120512859170     2.959634711076    12.000000000000
         C           -1.639089957967     2.882734326770     2.688467632076    12.000000000000
         C           -2.087218878567     1.523962675370     2.551877712476    12.000000000000
         C           -3.025661496467     1.211604435670     1.522337422576    12.000000000000
         C           -3.498600573067     2.267901508270     0.674674554676    12.000000000000
         C           -3.677531624567     1.998380229370    -0.716998265324    12.000000000000
         C           -3.377195804067     0.678694289570    -1.224799293124    12.000000000000
         C           -2.802754768767     0.546063548070    -2.505347668224    12.000000000000
         C           -2.414100338267     1.736019604970    -3.192828729524    12.000000000000
         C           -1.099152333267     1.795906683370    -3.778316426824    12.000000000000
         C           -0.224315195767     0.654018057770    -3.581740610924    12.000000000000
         C            1.160487174033     0.899306969370    -3.302638840524    12.000000000000
         C            1.949837274633    -0.157639660830    -2.757090306124    12.000000000000
         C            2.940187919833     0.157638126570    -1.761652392024    12.000000000000
         C            3.407163748233    -0.890693132930    -0.910499150424    12.000000000000
         C            3.599189109233    -0.613955351330     0.480902176276    12.000000000000
         C            3.308571915333     0.702082255870     0.965233148176    12.000000000000
         C            2.617426401733     0.834816913370     2.218198032776    12.000000000000
         C            2.249732513033    -0.356736167230     2.924575375276    12.000000000000
         C            0.953994182633    -0.424181253730     3.528016648676    12.000000000000
         C            0.078256720733     0.703463454770     3.399594281076    12.000000000000
         C           -1.307247048567     0.465379516670     3.121614217476    12.000000000000
         C           -1.759654445767    -0.887552176730     2.987489418076    12.000000000000
         C           -2.698381196267    -1.200706175730     1.958360705976    12.000000000000
         C           -3.149031208467    -0.151919581430     1.085133234976    12.000000000000
         C           -3.341323399167    -0.428763113930    -0.299776999624    12.000000000000
         C           -3.048940337267    -1.756656480630    -0.784445960724    12.000000000000
         C           -2.468372702167    -1.931352312830    -2.057213526724    12.000000000000
         C           -2.262694262467    -0.776113707430    -3.021178042824    12.000000000000
         C           -0.759244532067    -0.628018143430    -3.325011775424    12.000000000000
         C            0.099203635533    -1.735843297230    -3.147104593424    12.000000000000
         C            1.485726717033    -1.503429068730    -2.865466884924    12.000000000000
         C            2.281517334933    -2.570524535430    -2.327031695324    12.000000000000
         C            3.257278635833    -2.257730033130    -1.329126481124    12.000000000000
         C            3.738885659333    -3.307997752530    -0.485640743724    12.000000000000
         C            3.928591317133    -3.031676360030     0.913774646476    12.000000000000
         C            3.628738618933    -1.717873873930     1.400065912476    12.000000000000
         C            2.941234557233    -1.586980596630     2.648282582176    12.000000000000
         C            2.578267741133    -2.776993395930     3.359182313876    12.000000000000
         C            1.276767592733    -2.843686937430     3.967503212476    12.000000000000
         C            0.402712486033    -1.716043836030     3.833845394776    12.000000000000
         C           -0.982508164267    -1.951878725930     3.561726737976    12.000000000000
         C           -1.444367655467    -3.301929805830     3.445615440176    12.000000000000
         C           -2.402626883067    -3.615902218730     2.420747720776    12.000000000000
         C           -2.843945685767    -2.567569406330     1.549087300076    12.000000000000
         C           -3.023408333967    -2.850619558130     0.160009143276    12.000000000000
         C           -2.760218114667    -4.174220438230    -0.308014617324    12.000000000000
         C           -2.086301963267    -4.321119058730    -1.565945304024    12.000000000000
         C           -1.755150312867    -3.142792498330    -2.309523749324    12.000000000000
         C           -0.441855265667    -3.059625056230    -2.896230653824    12.000000000000
         C            0.441744097433    -4.166472608630    -2.752725774724    12.000000000000
         C            1.838147938533    -3.924388626230    -2.469630007524    12.000000000000
         C            2.624003790933    -4.978617658930    -1.915471800524    12.000000000000
         C            3.590926914033    -4.665815465030    -0.904682898624    12.000000000000
         C            4.057452500433    -5.721722488330    -0.049820922024    12.000000000000
         C            4.236538030333    -5.450584883130     1.336751294676    12.000000000000
         C            3.949638955533    -4.130521568830     1.826168950776    12.000000000000
         C            3.260381187833    -4.001500414130     3.074795199576    12.000000000000
         C            2.886529029733    -5.200902774630     3.771764973776    12.000000000000
         C            1.598645541433    -5.266972194330     4.376259675476    12.000000000000
         C            0.725981495133    -4.130339562530     4.263702694576    12.000000000000
         C           -0.661856186967    -4.363700406130     4.001205827876    12.000000000000
         C           -1.116076721767    -5.720677769930     3.874837272276    12.000000000000
         C           -2.072073496367    -6.030313769430     2.865582141176    12.000000000000
         C           -2.542304304467    -4.977624494830     2.008808444776    12.000000000000
         C           -2.724252114767    -5.264462370530     0.620740660676    12.000000000000
         C           -2.418407670667    -6.586430286630     0.148201913476    12.000000000000
         C           -1.729368407267    -6.723968289630    -1.089186801624    12.000000000000
         C           -1.379592369667    -5.537394952930    -1.820553626724    12.000000000000
         C           -0.090068561567    -5.461864169430    -2.429444372624    12.000000000000
         C            0.793241951833    -6.583524171730    -2.279814697724    12.000000000000
         C            2.174422343233    -6.342165906730    -2.028285344924    12.000000000000
         C            2.970284072833    -7.405870547130    -1.489420327624    12.000000000000
         C            3.941097573433    -7.088484921330    -0.471247045224    12.000000000000
         C            4.448095417433    -8.132752982730     0.359478435176    12.000000000000
         C            4.617720749833    -7.859352312530     1.769363029276    12.000000000000
         C            4.277000101033    -6.557603593730     2.248727140376    12.000000000000
         C            3.578896478233    -6.429553819230     3.502974605076    12.000000000000
         C            3.240511523133    -7.609517237130     4.233154132876    12.000000000000
         C            1.932842086033    -7.677679730630     4.846942679976    12.000000000000
         C            1.056898167133    -6.559312654230     4.689562375176    12.000000000000
         C           -0.341153138367    -6.792892301530     4.432206302676    12.000000000000
         C           -0.820288361967    -8.137364998130     4.344182431676    12.000000000000
         C           -1.801961129867    -8.446100625730     3.332057835676    12.000000000000
         C           -2.224587920967    -7.396456489630     2.463030532476    12.000000000000
         C           -2.401798072367    -7.690522404030     1.064987436376    12.000000000000
         C           -2.163467019167    -9.018583356730     0.587152402976    12.000000000000
         C           -1.433322351367    -9.150993335830    -0.658450548024    12.000000000000
         C           -1.041118416867    -7.954393115930    -1.345253200524    12.000000000000
         C            0.258799478933    -7.879030581230    -1.961740237724    12.000000000000
         C            1.136021010633    -9.002813069830    -1.878642556024    12.000000000000
         C            2.539789817033    -8.760770450330    -1.638556318724    12.000000000000
         C            3.419956084733    -9.777327938930    -1.127403507724    12.000000000000
         C            4.349005408633    -9.472845320030    -0.156590942324    12.000000000000
         C            4.686961908333    -8.908077210930     2.750781048776    12.000000000000
         C            4.016713014833    -8.786494325630     3.949220464976    12.000000000000
         C            1.323988838833    -8.928561527030     5.211576496076    12.000000000000
         C           -0.013633933067    -9.152211751530     4.964620501376    12.000000000000
         C           -2.110516969067    -9.779463026230     2.898682836176    12.000000000000
         C           -2.319145330467   -10.085488902830     1.565108705076    12.000000000000
         C           -0.726178289767   -10.346812117330    -1.037644569424    12.000000000000
         C            0.520021779133   -10.274609669130    -1.623488937924    12.000000000000
         H           -1.735862917567   -12.112136530730     0.973559205576     1.007825032230
         H           -3.175349665267   -12.013027314430     1.983531468676     1.007825032230
         H           -3.274161898667   -11.562946746130     0.280511758176     1.007825032230
         H            0.393407850033    10.274369892070    -5.232587650524     1.007825032230
         H            2.031753880433    10.807179044370    -3.498666525924     1.007825032230
         H            2.260058089733    11.240579865570    -1.332238615224     1.007825032230
         H            1.078853837233    11.470617077970     0.793401906876     1.007825032230
         H           -0.918169544367    11.372222000570     1.769533571276     1.007825032230
         H           -3.291360125067    10.971783046970     1.349660638676     1.007825032230
         H           -4.778892558767    10.489664526370    -0.224479632824     1.007825032230
         H           -5.057259233667    10.032192972570    -2.607428539424     1.007825032230
         H           -3.971130812967     9.835214622670    -4.543489697524     1.007825032230
         H           -1.770902048667     9.930994177870    -5.599413633224     1.007825032230
         H            3.259428008833   -10.824429983630    -1.401755047324     1.007825032230
         H            4.908339753133   -10.283656998630     0.319843083576     1.007825032230
         H            5.146310936333    -9.867088581230     2.492717702576     1.007825032230
         H            3.958915123433    -9.651930218530     4.616309362976     1.007825032230
         H            1.950222826633    -9.761660176530     5.544588929576     1.007825032230
         H           -0.419906342667   -10.158958080930     5.102423774276     1.007825032230
         H           -2.095276441567   -10.601654604430     3.623706922376     1.007825032230
         H           -1.105275326467   -11.326392725030    -0.744857297324     1.007825032230
         H            1.092545306433   -11.196835401030    -1.760605071824     1.007825032230
         H           -2.800218526467    -1.019890377630    -3.968669408224     1.007825032230

  Running in c1 symmetry.

  Rotational constants: A =      0.00067  B =      0.00018  C =      0.00018 [cm^-1]
  Rotational constants: A =     20.16445  B =      5.52962  C =      5.49630 [MHz]
  Nuclear repulsion = 42402.108539319400734

  Charge       = 0
  Multiplicity = 2
  Electrons    = 1049
  Nalpha       = 525
  Nbeta        = 524

  ==> Algorithm <==

  SCF Algorithm Type is DF.
  DIIS enabled.
  MOM disabled.
  Fractional occupation disabled.
  Guess Type is SAD.
  Energy threshold   = 1.00e-08
  Density threshold  = 1.00e-08
  Integral threshold = 1.00e-12

  ==> Primary Basis <==

  Basis Set: 6-31G(D)
    Blend: 6-31G(D)
    Number of shells: 1072
    Number of basis functions: 2611
    Number of Cartesian functions: 2611
    Spherical Harmonics?: false
    Max angular momentum: 2

  ==> DFT Potential <==

   => Composite Functional: PBE <= 

    PBE GGA Exchange-Correlation Functional

    J.P. Perdew et. al., Phys. Rev. Lett., 77(18), 3865-3868, 1996


    Deriv               =              1
    GGA                 =           TRUE
    Meta                =          FALSE

    Exchange Hybrid     =          FALSE
    MP2 Hybrid          =          FALSE

   => Exchange Functionals <=

    1.0000     XC_GGA_X_PBE

   => Correlation Functionals <=

    1.0000     XC_GGA_C_PBE

   => LibXC Density Thresholds  <==

    XC_GGA_C_PBE:  1.00E-12 
    XC_GGA_X_PBE:  1.00E-15 

   => Molecular Quadrature <=

    Radial Scheme          =       TREUTLER
    Pruning Scheme         =           NONE
    Nuclear Scheme         =       TREUTLER

    BS radius alpha        =              1
    Pruning alpha          =              1
    Radial Points          =             75
    Spherical Points       =            302
    Total Points           =        3652287
    Total Blocks           =          24278
    Max Points             =            256
    Max Functions          =            843
    Weights Tolerance      =       1.00E-15

   => Loading Basis Set <=

    Name: (6-31G(D) AUX)
    Role: JKFIT
    Keyword: DF_BASIS_SCF
    atoms 1-171   entry C          line   121 file /home/adamcronin/.conda/envs/p4env/share/psi4/basis/cc-pvdz-jkfit.gbs 
    atoms 172-194 entry H          line    51 file /home/adamcronin/.conda/envs/p4env/share/psi4/basis/cc-pvdz-jkfit.gbs 

  ==> Integral Setup <==

  ==> DiskDFJK: Density-Fitted J/K Matrices <==

    J tasked:                  Yes
    K tasked:                   No
    wK tasked:                  No
    OpenMP threads:              1
    Integrals threads:           1
    Memory [MiB]:            41842
    Algorithm:                Disk
    Integral Cache:           NONE
    Schwarz Cutoff:          1E-12
    Fitting Condition:       1E-10

   => Auxiliary Basis Set <=

  Basis Set: (6-31G(D) AUX)
    Blend: CC-PVDZ-JKFIT
    Number of shells: 4311
    Number of basis functions: 14426
    Number of Cartesian functions: 14426
    Spherical Harmonics?: false
    Max angular momentum: 3

  Cached 10.0% of DFT collocation blocks in 4.117 [GiB].

  Minimum eigenvalue in the overlap matrix is 7.3991999383E-05.
  Reciprocal condition number of the overlap matrix is 8.8073462193E-06.
    Using symmetric orthogonalization.

  ==> Pre-Iterations <==

  SCF Guess: Superposition of Atomic Densities via on-the-fly atomic UHF (no occupation information).

   -------------------------
    Irrep   Nso     Nmo    
   -------------------------
     A       2611    2611 
   -------------------------
    Total    2611    2611
   -------------------------

  ==> Iterations <==

                           Total Energy        Delta E     RMS |[F,P]|

   @DF-UKS iter SAD: -6532.81454895324714   -6.53281e+03   0.00000e+00 
   @DF-UKS iter   1: -6518.22724520889460    1.45873e+01   1.09902e-03 DIIS
   @DF-UKS iter   2: -6518.40599863174430   -1.78753e-01   1.12549e-03 DIIS
   @DF-UKS iter   3: -6520.46507828465838   -2.05908e+00   6.86766e-04 DIIS
   @DF-UKS iter   4: -6520.67410765336535   -2.09029e-01   6.53627e-04 DIIS
   @DF-UKS iter   5: -6522.90439207035524   -2.23028e+00   7.13110e-05 DIIS
   @DF-UKS iter   6: -6522.74511015712051    1.59282e-01   1.80132e-04 DIIS
   @DF-UKS iter   7: -6522.92585781081289   -1.80748e-01   3.58545e-05 DIIS
   @DF-UKS iter   8: -6522.92893711233046   -3.07930e-03   2.45915e-05 DIIS
   @DF-UKS iter   9: -6522.93131045153132   -2.37334e-03   1.04897e-05 DIIS
   @DF-UKS iter  10: -6522.93167018645909   -3.59735e-04   5.96859e-06 DIIS
   @DF-UKS iter  11: -6522.93184101616498   -1.70830e-04   3.38654e-06 DIIS
   @DF-UKS iter  12: -6522.93190763847088   -6.66223e-05   1.48175e-06 DIIS
   @DF-UKS iter  13: -6522.93191848625429   -1.08478e-05   9.27393e-07 DIIS
   @DF-UKS iter  14: -6522.93192256511247   -4.07886e-06   8.02000e-07 DIIS
   @DF-UKS iter  15: -6522.93192592129344   -3.35618e-06   4.14575e-07 DIIS
   @DF-UKS iter  16: -6522.93192633330182   -4.12008e-07   3.94230e-07 DIIS
   @DF-UKS iter  17: -6522.93192651176651   -1.78465e-07   3.24566e-07 DIIS
   @DF-UKS iter  18: -6522.93192683522648   -3.23460e-07   2.44024e-07 DIIS
   @DF-UKS iter  19: -6522.93192702985834   -1.94632e-07   1.48991e-07 DIIS
   @DF-UKS iter  20: -6522.93192705963156   -2.97732e-08   1.33752e-07 DIIS
   @DF-UKS iter  21: -6522.93192713113967   -7.15081e-08   7.07162e-08 DIIS
   @DF-UKS iter  22: -6522.93192713809549   -6.95582e-09   6.20607e-08 DIIS
   @DF-UKS iter  23: -6522.93192715615442   -1.80589e-08   4.17108e-08 DIIS
   @DF-UKS iter  24: -6522.93192716466729   -8.51287e-09   2.20864e-08 DIIS
   @DF-UKS iter  25: -6522.93192716635531   -1.68802e-09   1.92435e-08 DIIS
   @DF-UKS iter  26: -6522.93192716733029   -9.74978e-10   1.39926e-08 DIIS
   @DF-UKS iter  27: -6522.93192716760677   -2.76486e-10   1.18443e-08 DIIS
   @DF-UKS iter  28: -6522.93192716751946    8.73115e-11   1.06652e-08 DIIS
   @DF-UKS iter  29: -6522.93192716801423   -4.94765e-10   5.92134e-09 DIIS
  Energy and wave function converged.


  ==> Post-Iterations <==

   Electrons on quadrature grid:
      Nalpha   =  524.9988361710 ; deviation = -1.164e-03
      Nbeta    =  523.9988679347 ; deviation = -1.132e-03
      Ntotal   = 1048.9977041057 ; deviation = -2.296e-03 

   @Spin Contamination Metric:   1.363707645E-02
   @S^2 Expected:                7.500000000E-01
   @S^2 Observed:                7.636370764E-01
   @S   Expected:                5.000000000E-01
   @S   Observed:                5.000000000E-01

    Orbital Energies [Eh]
    ---------------------

    Alpha Occupied:                                                       

       1A     -9.938755     2A     -9.932358     3A     -9.932126  
       4A     -9.931845     5A     -9.931822     6A     -9.931572  
       7A     -9.931569     8A     -9.931490     9A     -9.931490  
      10A     -9.931466    11A     -9.931447    12A     -9.931427  
      13A     -9.931330    14A     -9.931313    15A     -9.931235  
      16A     -9.931158    17A     -9.931128    18A     -9.931112  
      19A     -9.931105    20A     -9.931102    21A     -9.931082  
      22A     -9.931069    23A     -9.931012    24A     -9.930986  
      25A     -9.930981    26A     -9.930903    27A     -9.930892  
      28A     -9.930836    29A     -9.930805    30A     -9.930798  
      31A     -9.930766    32A     -9.930721    33A     -9.930685  
      34A     -9.930620    35A     -9.930594    36A     -9.930589  
      37A     -9.930520    38A     -9.930516    39A     -9.930505  
      40A     -9.930457    41A     -9.930425    42A     -9.930394  
      43A     -9.930391    44A     -9.930364    45A     -9.930326  
      46A     -9.930306    47A     -9.930285    48A     -9.930268  
      49A     -9.930240    50A     -9.930196    51A     -9.930154  
      52A     -9.930144    53A     -9.930127    54A     -9.930094  
      55A     -9.930062    56A     -9.930048    57A     -9.930023  
      58A     -9.930015    59A     -9.929978    60A     -9.929899  
      61A     -9.929897    62A     -9.929895    63A     -9.929869  
      64A     -9.929842    65A     -9.929753    66A     -9.929733  
      67A     -9.929683    68A     -9.929665    69A     -9.929654  
      70A     -9.929627    71A     -9.929619    72A     -9.929614  
      73A     -9.929614    74A     -9.929611    75A     -9.929609  
      76A     -9.929562    77A     -9.929561    78A     -9.929544  
      79A     -9.929535    80A     -9.929530    81A     -9.929513  
      82A     -9.929494    83A     -9.929474    84A     -9.929462  
      85A     -9.929437    86A     -9.929436    87A     -9.929414  
      88A     -9.929398    89A     -9.929356    90A     -9.929324  
      91A     -9.929312    92A     -9.929272    93A     -9.929270  
      94A     -9.929268    95A     -9.929257    96A     -9.929254  
      97A     -9.929230    98A     -9.929194    99A     -9.929184  
     100A     -9.929130   101A     -9.929096   102A     -9.929087  
     103A     -9.929050   104A     -9.929031   105A     -9.929017  
     106A     -9.928997   107A     -9.928988   108A     -9.928963  
     109A     -9.928962   110A     -9.928947   111A     -9.928885  
     112A     -9.928874   113A     -9.928856   114A     -9.928830  
     115A     -9.928820   116A     -9.928772   117A     -9.928751  
     118A     -9.928749   119A     -9.928741   120A     -9.928706  
     121A     -9.928697   122A     -9.928693   123A     -9.928664  
     124A     -9.928630   125A     -9.928602   126A     -9.928572  
     127A     -9.928543   128A     -9.928514   129A     -9.928468  
     130A     -9.928427   131A     -9.928425   132A     -9.928394  
     133A     -9.928392   134A     -9.928376   135A     -9.928369  
     136A     -9.928348   137A     -9.928340   138A     -9.928302  
     139A     -9.928200   140A     -9.928147   141A     -9.928123  
     142A     -9.928032   143A     -9.927996   144A     -9.927957  
     145A     -9.927911   146A     -9.927737   147A     -9.927691  
     148A     -9.927381   149A     -9.927330   150A     -9.926569  
     151A     -9.926437   152A     -9.919807   153A     -9.919714  
     154A     -9.919629   155A     -9.919583   156A     -9.919545  
     157A     -9.919428   158A     -9.919391   159A     -9.919375  
     160A     -9.919343   161A     -9.919182   162A     -9.919132  
     163A     -9.919101   164A     -9.919100   165A     -9.918939  
     166A     -9.918917   167A     -9.918899   168A     -9.918098  
     169A     -9.916973   170A     -9.914867   171A     -9.909779  
     172A     -0.857938   173A     -0.851431   174A     -0.848549  
     175A     -0.847769   176A     -0.842156   177A     -0.841477  
     178A     -0.840058   179A     -0.830853   180A     -0.830249  
     181A     -0.825659   182A     -0.820114   183A     -0.819788  
     184A     -0.816590   185A     -0.816011   186A     -0.813812  
     187A     -0.813560   188A     -0.807365   189A     -0.802978  
     190A     -0.802758   191A     -0.798386   192A     -0.797727  
     193A     -0.789079   194A     -0.788911   195A     -0.785404  
     196A     -0.776891   197A     -0.775845   198A     -0.775261  
     199A     -0.774838   200A     -0.772005   201A     -0.771303  
     202A     -0.768960   203A     -0.768897   204A     -0.760300  
     205A     -0.758430   206A     -0.758026   207A     -0.752740  
     208A     -0.751483   209A     -0.751134   210A     -0.750867  
     211A     -0.743433   212A     -0.742858   213A     -0.733195  
     214A     -0.731058   215A     -0.730026   216A     -0.725367  
     217A     -0.723206   218A     -0.722662   219A     -0.721834  
     220A     -0.716275   221A     -0.715682   222A     -0.710511  
     223A     -0.709472   224A     -0.709379   225A     -0.708341  
     226A     -0.703354   227A     -0.701068   228A     -0.700781  
     229A     -0.697785   230A     -0.696131   231A     -0.694143  
     232A     -0.692227   233A     -0.688075   234A     -0.687506  
     235A     -0.686559   236A     -0.685106   237A     -0.676892  
     238A     -0.672080   239A     -0.671432   240A     -0.670853  
     241A     -0.670390   242A     -0.667670   243A     -0.666319  
     244A     -0.664917   245A     -0.663334   246A     -0.662315  
     247A     -0.656298   248A     -0.653426   249A     -0.652806  
     250A     -0.649132   251A     -0.647100   252A     -0.644613  
     253A     -0.640260   254A     -0.635797   255A     -0.630211  
     256A     -0.620418   257A     -0.616551   258A     -0.611545  
     259A     -0.610013   260A     -0.609433   261A     -0.608380  
     262A     -0.607430   263A     -0.605541   264A     -0.602900  
     265A     -0.599388   266A     -0.598415   267A     -0.596496  
     268A     -0.594603   269A     -0.593309   270A     -0.588652  
     271A     -0.587669   272A     -0.582314   273A     -0.581130  
     274A     -0.577700   275A     -0.577524   276A     -0.577298  
     277A     -0.576381   278A     -0.571823   279A     -0.561119  
     280A     -0.560701   281A     -0.555935   282A     -0.552130  
     283A     -0.551144   284A     -0.551041   285A     -0.550158  
     286A     -0.548413   287A     -0.548189   288A     -0.547637  
     289A     -0.546637   290A     -0.545128   291A     -0.543379  
     292A     -0.541947   293A     -0.541302   294A     -0.540757  
     295A     -0.540174   296A     -0.528112   297A     -0.526532  
     298A     -0.522898   299A     -0.514590   300A     -0.513786  
     301A     -0.513036   302A     -0.511713   303A     -0.507902  
     304A     -0.506679   305A     -0.497961   306A     -0.496524  
     307A     -0.496060   308A     -0.491799   309A     -0.489168  
     310A     -0.482939   311A     -0.481668   312A     -0.481407  
     313A     -0.479599   314A     -0.476459   315A     -0.476373  
     316A     -0.475771   317A     -0.474165   318A     -0.472441  
     319A     -0.472342   320A     -0.470050   321A     -0.468255  
     322A     -0.465340   323A     -0.464581   324A     -0.464374  
     325A     -0.464296   326A     -0.463427   327A     -0.459685  
     328A     -0.459586   329A     -0.458885   330A     -0.457642  
     331A     -0.456292   332A     -0.454641   333A     -0.445392  
     334A     -0.442530   335A     -0.441666   336A     -0.438158  
     337A     -0.437860   338A     -0.436819   339A     -0.435740  
     340A     -0.433037   341A     -0.429888   342A     -0.426180  
     343A     -0.422497   344A     -0.421766   345A     -0.419448  
     346A     -0.418895   347A     -0.418609   348A     -0.418188  
     349A     -0.417424   350A     -0.415321   351A     -0.414786  
     352A     -0.413203   353A     -0.412855   354A     -0.411625  
     355A     -0.411415   356A     -0.410980   357A     -0.410264  
     358A     -0.409922   359A     -0.409587   360A     -0.408460  
     361A     -0.405282   362A     -0.403984   363A     -0.402826  
     364A     -0.402130   365A     -0.401921   366A     -0.401468  
     367A     -0.399341   368A     -0.398329   369A     -0.397875  
     370A     -0.396631   371A     -0.396135   372A     -0.396004  
     373A     -0.395395   374A     -0.395294   375A     -0.394585  
     376A     -0.392300   377A     -0.390752   378A     -0.390621  
     379A     -0.389493   380A     -0.388564   381A     -0.388527  
     382A     -0.387530   383A     -0.387004   384A     -0.386249  
     385A     -0.385644   386A     -0.384920   387A     -0.382656  
     388A     -0.382156   389A     -0.380607   390A     -0.378790  
     391A     -0.376597   392A     -0.375812   393A     -0.373334  
     394A     -0.372843   395A     -0.372301   396A     -0.371877  
     397A     -0.371255   398A     -0.370681   399A     -0.370500  
     400A     -0.369331   401A     -0.368188   402A     -0.366798  
     403A     -0.366317   404A     -0.365768   405A     -0.365020  
     406A     -0.364207   407A     -0.363680   408A     -0.363436  
     409A     -0.362847   410A     -0.361971   411A     -0.361454  
     412A     -0.360583   413A     -0.359144   414A     -0.357412  
     415A     -0.356595   416A     -0.355357   417A     -0.354732  
     418A     -0.353122   419A     -0.351833   420A     -0.350464  
     421A     -0.349573   422A     -0.345956   423A     -0.344371  
     424A     -0.343560   425A     -0.342833   426A     -0.342096  
     427A     -0.340280   428A     -0.336922   429A     -0.330975  
     430A     -0.330642   431A     -0.328992   432A     -0.327866  
     433A     -0.327350   434A     -0.324603   435A     -0.321139  
     436A     -0.320091   437A     -0.319704   438A     -0.319506  
     439A     -0.319081   440A     -0.318717   441A     -0.317377  
     442A     -0.316687   443A     -0.316536   444A     -0.315052  
     445A     -0.314267   446A     -0.310348   447A     -0.308468  
     448A     -0.308377   449A     -0.307501   450A     -0.306414  
     451A     -0.304831   452A     -0.304510   453A     -0.304060  
     454A     -0.303123   455A     -0.302857   456A     -0.301802  
     457A     -0.300665   458A     -0.298827   459A     -0.297599  
     460A     -0.293722   461A     -0.293112   462A     -0.291776  
     463A     -0.290983   464A     -0.289868   465A     -0.289437  
     466A     -0.287884   467A     -0.287185   468A     -0.286805  
     469A     -0.286194   470A     -0.283914   471A     -0.280551  
     472A     -0.280062   473A     -0.277737   474A     -0.277420  
     475A     -0.277280   476A     -0.274270   477A     -0.270855  
     478A     -0.270402   479A     -0.267788   480A     -0.267034  
     481A     -0.266000   482A     -0.265568   483A     -0.265087  
     484A     -0.263697   485A     -0.260349   486A     -0.257728  
     487A     -0.254236   488A     -0.253861   489A     -0.246996  
     490A     -0.244496   491A     -0.243578   492A     -0.242531  
     493A     -0.240396   494A     -0.240289   495A     -0.240151  
     496A     -0.239912   497A     -0.239027   498A     -0.236123  
     499A     -0.234325   500A     -0.228493   501A     -0.226818  
     502A     -0.226580   503A     -0.224731   504A     -0.223738  
     505A     -0.218059   506A     -0.217541   507A     -0.216596  
     508A     -0.215251   509A     -0.209912   510A     -0.209433  
     511A     -0.208497   512A     -0.208107   513A     -0.202529  
     514A     -0.201404   515A     -0.196146   516A     -0.194725  
     517A     -0.190543   518A     -0.189806   519A     -0.188598  
     520A     -0.185629   521A     -0.178195   522A     -0.168427  
     523A     -0.156735   524A     -0.146848   525A     -0.138415  

    Alpha Virtual:                                                        

     526A     -0.121922   527A     -0.114552   528A     -0.099353  
     529A     -0.093311   530A     -0.087623   531A     -0.086420  
     532A     -0.086191   533A     -0.085202   534A     -0.083100  
     535A     -0.082516   536A     -0.081929   537A     -0.080515  
     538A     -0.078064   539A     -0.076507   540A     -0.072281  
     541A     -0.072060   542A     -0.071694   543A     -0.068856  
     544A     -0.066537   545A     -0.065718   546A     -0.062581  
     547A     -0.060153   548A     -0.059799   549A     -0.057446  
     550A     -0.052843   551A     -0.052097   552A     -0.046810  
     553A     -0.044281   554A     -0.042284   555A     -0.041904  
     556A     -0.038474   557A     -0.036338   558A     -0.034280  
     559A     -0.030986   560A     -0.030856   561A     -0.029986  
     562A     -0.029343   563A     -0.025423   564A     -0.018491  
     565A     -0.017779   566A     -0.017688   567A     -0.015002  
     568A     -0.008072   569A     -0.007209   570A      0.001005  
     571A      0.003828   572A      0.008035   573A      0.009313  
     574A      0.009849   575A      0.012994   576A      0.018561  
     577A      0.024775   578A      0.029259   579A      0.030421  
     580A      0.032076   581A      0.034104   582A      0.038734  
     583A      0.040322   584A      0.040468   585A      0.043752  
     586A      0.044619   587A      0.045606   588A      0.046456  
     589A      0.049596   590A      0.053304   591A      0.054469  
     592A      0.055118   593A      0.057546   594A      0.060412  
     595A      0.061672   596A      0.065347   597A      0.066894  
     598A      0.067229   599A      0.074745   600A      0.076427  
     601A      0.077629   602A      0.079751   603A      0.081738  
     604A      0.082610   605A      0.084608   606A      0.086454  
     607A      0.086861   608A      0.087853   609A      0.088702  
     610A      0.090652   611A      0.090872   612A      0.091310  
     613A      0.091437   614A      0.092006   615A      0.092827  
     616A      0.093180   617A      0.094688   618A      0.096260  
     619A      0.101784   620A      0.106755   621A      0.119575  
     622A      0.127271   623A      0.131799   624A      0.135206  
     625A      0.137437   626A      0.138959   627A      0.139852  
     628A      0.141830   629A      0.143106   630A      0.144678  
     631A      0.145293   632A      0.146086   633A      0.150846  
     634A      0.156365   635A      0.157112   636A      0.158047  
     637A      0.159001   638A      0.160113   639A      0.161030  
     640A      0.163166   641A      0.163735   642A      0.165488  
     643A      0.166301   644A      0.167263   645A      0.169539  
     646A      0.171955   647A      0.172758   648A      0.175421  
     649A      0.176023   650A      0.178469   651A      0.179557  
     652A      0.180265   653A      0.181812   654A      0.182094  
     655A      0.182791   656A      0.184305   657A      0.184572  
     658A      0.185187   659A      0.187864   660A      0.188664  
     661A      0.191688   662A      0.192520   663A      0.194298  
     664A      0.194617   665A      0.195188   666A      0.195505  
     667A      0.196610   668A      0.196849   669A      0.197185  
     670A      0.197592   671A      0.200676   672A      0.201510  
     673A      0.203131   674A      0.204023   675A      0.204612  
     676A      0.205069   677A      0.205816   678A      0.206065  
     679A      0.207830   680A      0.208142   681A      0.209547  
     682A      0.213574   683A      0.214205   684A      0.214659  
     685A      0.215020   686A      0.217090   687A      0.217760  
     688A      0.219794   689A      0.221220   690A      0.224545  
     691A      0.228517   692A      0.228813   693A      0.229144  
     694A      0.231692   695A      0.233634   696A      0.233909  
     697A      0.236919   698A      0.237375   699A      0.242056  
     700A      0.242759   701A      0.243435   702A      0.245735  
     703A      0.247917   704A      0.250558   705A      0.252924  
     706A      0.253405   707A      0.254070   708A      0.256565  
     709A      0.257517   710A      0.258217   711A      0.263470  
     712A      0.265616   713A      0.266950   714A      0.267486  
     715A      0.272605   716A      0.276085   717A      0.277996  
     718A      0.278421   719A      0.279708   720A      0.279819  
     721A      0.281452   722A      0.283095   723A      0.285707  
     724A      0.286758   725A      0.287223   726A      0.287831  
     727A      0.288369   728A      0.290402   729A      0.291228  
     730A      0.292065   731A      0.293732   732A      0.297375  
     733A      0.297766   734A      0.301469   735A      0.303123  
     736A      0.304444   737A      0.305738   738A      0.309861  
     739A      0.319673   740A      0.321742   741A      0.322050  
     742A      0.322651   743A      0.326414   744A      0.327431  
     745A      0.328885   746A      0.330062   747A      0.330656  
     748A      0.331935   749A      0.334618   750A      0.337645  
     751A      0.338294   752A      0.341115   753A      0.346517  
     754A      0.348003   755A      0.349086   756A      0.353554  
     757A      0.359124   758A      0.360898   759A      0.361086  
     760A      0.364034   761A      0.365439   762A      0.368023  
     763A      0.371015   764A      0.374528   765A      0.375660  
     766A      0.378198   767A      0.380369   768A      0.382221  
     769A      0.382382   770A      0.384187   771A      0.385366  
     772A      0.385716   773A      0.387525   774A      0.389198  
     775A      0.391549   776A      0.392816   777A      0.393207  
     778A      0.394548   779A      0.397658   780A      0.398334  
     781A      0.401888   782A      0.403742   783A      0.405087  
     784A      0.405255   785A      0.406539   786A      0.407146  
     787A      0.407737   788A      0.407888   789A      0.409388  
     790A      0.409937   791A      0.410614   792A      0.411360  
     793A      0.414718   794A      0.415760   795A      0.417382  
     796A      0.419089   797A      0.420157   798A      0.421642  
     799A      0.422198   800A      0.423281   801A      0.424763  
     802A      0.425991   803A      0.428164   804A      0.429574  
     805A      0.433990   806A      0.435014   807A      0.437158  
     808A      0.439796   809A      0.441369   810A      0.442500  
     811A      0.443660   812A      0.443891   813A      0.444606  
     814A      0.445585   815A      0.445744   816A      0.446842  
     817A      0.447703   818A      0.448408   819A      0.449876  
     820A      0.450139   821A      0.450857   822A      0.451737  
     823A      0.453554   824A      0.455015   825A      0.456404  
     826A      0.457345   827A      0.459800   828A      0.460292  
     829A      0.461213   830A      0.464060   831A      0.464517  
     832A      0.465070   833A      0.465693   834A      0.466052  
     835A      0.466952   836A      0.467204   837A      0.467799  
     838A      0.469816   839A      0.471373   840A      0.472214  
     841A      0.472797   842A      0.473185   843A      0.473392  
     844A      0.474852   845A      0.475640   846A      0.476582  
     847A      0.477160   848A      0.477968   849A      0.478080  
     850A      0.478494   851A      0.478949   852A      0.479800  
     853A      0.481035   854A      0.481209   855A      0.482472  
     856A      0.482517   857A      0.482861   858A      0.483375  
     859A      0.483685   860A      0.484215   861A      0.484438  
     862A      0.484780   863A      0.485327   864A      0.485791  
     865A      0.486536   866A      0.487260   867A      0.487579  
     868A      0.488429   869A      0.488993   870A      0.490361  
     871A      0.491392   872A      0.491643   873A      0.492148  
     874A      0.492612   875A      0.492680   876A      0.493164  
     877A      0.494140   878A      0.494657   879A      0.495438  
     880A      0.496218   881A      0.496862   882A      0.497745  
     883A      0.498603   884A      0.499132   885A      0.499571  
     886A      0.499891   887A      0.500459   888A      0.501075  
     889A      0.501478   890A      0.502369   891A      0.502521  
     892A      0.503030   893A      0.503401   894A      0.504050  
     895A      0.504603   896A      0.506002   897A      0.506760  
     898A      0.506990   899A      0.507220   900A      0.507912  
     901A      0.509004   902A      0.509493   903A      0.510636  
     904A      0.510961   905A      0.512293   906A      0.513028  
     907A      0.513290   908A      0.514532   909A      0.515224  
     910A      0.515975   911A      0.516617   912A      0.516971  
     913A      0.517438   914A      0.517810   915A      0.518430  
     916A      0.519124   917A      0.519726   918A      0.520149  
     919A      0.521399   920A      0.521560   921A      0.522172  
     922A      0.522660   923A      0.523844   924A      0.524350  
     925A      0.525039   926A      0.525498   927A      0.526365  
     928A      0.527204   929A      0.527504   930A      0.527931  
     931A      0.528838   932A      0.529432   933A      0.530730  
     934A      0.531305   935A      0.531399   936A      0.531990  
     937A      0.532184   938A      0.532369   939A      0.533662  
     940A      0.533781   941A      0.534691   942A      0.535499  
     943A      0.537025   944A      0.537139   945A      0.537771  
     946A      0.538514   947A      0.538726   948A      0.539887  
     949A      0.540385   950A      0.540501   951A      0.541037  
     952A      0.541334   953A      0.541932   954A      0.542196  
     955A      0.543614   956A      0.545584   957A      0.546451  
     958A      0.547686   959A      0.548311   960A      0.548739  
     961A      0.549198   962A      0.549563   963A      0.551049  
     964A      0.551476   965A      0.551642   966A      0.552589  
     967A      0.553295   968A      0.553422   969A      0.554374  
     970A      0.555186   971A      0.555416   972A      0.555804  
     973A      0.556777   974A      0.557421   975A      0.557692  
     976A      0.558063   977A      0.558689   978A      0.559884  
     979A      0.561116   980A      0.562058   981A      0.562390  
     982A      0.562714   983A      0.564547   984A      0.566225  
     985A      0.566536   986A      0.566762   987A      0.568712  
     988A      0.568897   989A      0.570278   990A      0.571137  
     991A      0.572459   992A      0.574605   993A      0.574822  
     994A      0.575676   995A      0.576314   996A      0.577022  
     997A      0.579477   998A      0.580367   999A      0.582546  
    1000A      0.585371  1001A      0.587306  1002A      0.587502  
    1003A      0.592450  1004A      0.593146  1005A      0.595897  
    1006A      0.596848  1007A      0.597475  1008A      0.598452  
    1009A      0.600332  1010A      0.601433  1011A      0.602489  
    1012A      0.604337  1013A      0.605122  1014A      0.605796  
    1015A      0.607033  1016A      0.607816  1017A      0.610785  
    1018A      0.613261  1019A      0.616385  1020A      0.616786  
    1021A      0.617239  1022A      0.617933  1023A      0.619346  
    1024A      0.621872  1025A      0.623336  1026A      0.624036  
    1027A      0.626957  1028A      0.627065  1029A      0.627536  
    1030A      0.627728  1031A      0.628093  1032A      0.629108  
    1033A      0.631741  1034A      0.632435  1035A      0.632546  
    1036A      0.633143  1037A      0.633537  1038A      0.633743  
    1039A      0.633962  1040A      0.634620  1041A      0.635904  
    1042A      0.635975  1043A      0.636364  1044A      0.637067  
    1045A      0.637362  1046A      0.637899  1047A      0.638822  
    1048A      0.639846  1049A      0.641062  1050A      0.642052  
    1051A      0.643230  1052A      0.643806  1053A      0.644899  
    1054A      0.646011  1055A      0.646270  1056A      0.647068  
    1057A      0.650342  1058A      0.650713  1059A      0.654414  
    1060A      0.657409  1061A      0.658284  1062A      0.658983  
    1063A      0.659181  1064A      0.662917  1065A      0.667308  
    1066A      0.670929  1067A      0.673964  1068A      0.677446  
    1069A      0.678283  1070A      0.679835  1071A      0.683911  
    1072A      0.685077  1073A      0.686662  1074A      0.688526  
    1075A      0.689876  1076A      0.690960  1077A      0.691516  
    1078A      0.692168  1079A      0.693370  1080A      0.695718  
    1081A      0.697439  1082A      0.698814  1083A      0.699385  
    1084A      0.699788  1085A      0.700171  1086A      0.700935  
    1087A      0.701625  1088A      0.702883  1089A      0.703614  
    1090A      0.704218  1091A      0.705933  1092A      0.706083  
    1093A      0.707899  1094A      0.708633  1095A      0.709242  
    1096A      0.709640  1097A      0.711336  1098A      0.712377  
    1099A      0.712848  1100A      0.714308  1101A      0.715087  
    1102A      0.716098  1103A      0.717798  1104A      0.719389  
    1105A      0.719462  1106A      0.719954  1107A      0.721502  
    1108A      0.722229  1109A      0.725099  1110A      0.727972  
    1111A      0.729108  1112A      0.730325  1113A      0.731223  
    1114A      0.732211  1115A      0.733448  1116A      0.734144  
    1117A      0.736224  1118A      0.736587  1119A      0.738035  
    1120A      0.740121  1121A      0.741733  1122A      0.743681  
    1123A      0.746074  1124A      0.746906  1125A      0.747242  
    1126A      0.747473  1127A      0.748477  1128A      0.752627  
    1129A      0.754993  1130A      0.756048  1131A      0.757250  
    1132A      0.758053  1133A      0.758700  1134A      0.762045  
    1135A      0.762442  1136A      0.765132  1137A      0.765583  
    1138A      0.767045  1139A      0.768930  1140A      0.769568  
    1141A      0.771639  1142A      0.775298  1143A      0.777938  
    1144A      0.779766  1145A      0.781028  1146A      0.781168  
    1147A      0.782065  1148A      0.790963  1149A      0.794157  
    1150A      0.794964  1151A      0.796395  1152A      0.797435  
    1153A      0.798486  1154A      0.799240  1155A      0.799763  
    1156A      0.800311  1157A      0.801171  1158A      0.801947  
    1159A      0.803846  1160A      0.805092  1161A      0.807157  
    1162A      0.807289  1163A      0.808468  1164A      0.808927  
    1165A      0.810123  1166A      0.810412  1167A      0.811385  
    1168A      0.812063  1169A      0.812111  1170A      0.813550  
    1171A      0.815442  1172A      0.816334  1173A      0.817398  
    1174A      0.818776  1175A      0.823909  1176A      0.824612  
    1177A      0.824833  1178A      0.826050  1179A      0.826768  
    1180A      0.827291  1181A      0.827620  1182A      0.828034  
    1183A      0.829388  1184A      0.829454  1185A      0.830526  
    1186A      0.831506  1187A      0.831981  1188A      0.833406  
    1189A      0.836098  1190A      0.836864  1191A      0.837464  
    1192A      0.838181  1193A      0.839868  1194A      0.841164  
    1195A      0.845008  1196A      0.846974  1197A      0.848332  
    1198A      0.849307  1199A      0.853251  1200A      0.853367  
    1201A      0.860107  1202A      0.860694  1203A      0.861550  
    1204A      0.861649  1205A      0.863110  1206A      0.864566  
    1207A      0.865612  1208A      0.868526  1209A      0.870360  
    1210A      0.872817  1211A      0.876634  1212A      0.878312  
    1213A      0.880715  1214A      0.882780  1215A      0.885306  
    1216A      0.888101  1217A      0.889916  1218A      0.892184  
    1219A      0.894376  1220A      0.901319  1221A      0.902085  
    1222A      0.905460  1223A      0.906698  1224A      0.910100  
    1225A      0.913104  1226A      0.917949  1227A      0.918525  
    1228A      0.921500  1229A      0.921729  1230A      0.922111  
    1231A      0.923268  1232A      0.924577  1233A      0.925364  
    1234A      0.925704  1235A      0.926946  1236A      0.927791  
    1237A      0.928654  1238A      0.930813  1239A      0.932145  
    1240A      0.932453  1241A      0.934070  1242A      0.934316  
    1243A      0.936433  1244A      0.939229  1245A      0.940009  
    1246A      0.942436  1247A      0.943949  1248A      0.947700  
    1249A      0.948292  1250A      0.948837  1251A      0.950235  
    1252A      0.951894  1253A      0.952972  1254A      0.954271  
    1255A      0.955334  1256A      0.959102  1257A      0.960310  
    1258A      0.960866  1259A      0.961604  1260A      0.964099  
    1261A      0.965153  1262A      0.967454  1263A      0.967617  
    1264A      0.968830  1265A      0.971169  1266A      0.971444  
    1267A      0.974405  1268A      0.977148  1269A      0.981326  
    1270A      0.982156  1271A      0.985273  1272A      0.985863  
    1273A      0.988169  1274A      0.989706  1275A      0.991824  
    1276A      0.996242  1277A      0.996719  1278A      1.000589  
    1279A      1.001533  1280A      1.002324  1281A      1.002715  
    1282A      1.004891  1283A      1.005430  1284A      1.007042  
    1285A      1.007879  1286A      1.009706  1287A      1.010536  
    1288A      1.012564  1289A      1.015810  1290A      1.017040  
    1291A      1.017944  1292A      1.020580  1293A      1.022091  
    1294A      1.023043  1295A      1.026262  1296A      1.028385  
    1297A      1.029531  1298A      1.032625  1299A      1.034351  
    1300A      1.034893  1301A      1.036395  1302A      1.037388  
    1303A      1.038128  1304A      1.040453  1305A      1.041851  
    1306A      1.043044  1307A      1.044244  1308A      1.047336  
    1309A      1.048774  1310A      1.049408  1311A      1.052899  
    1312A      1.054100  1313A      1.055101  1314A      1.055718  
    1315A      1.056318  1316A      1.057962  1317A      1.058530  
    1318A      1.059471  1319A      1.061591  1320A      1.064802  
    1321A      1.065922  1322A      1.066982  1323A      1.067789  
    1324A      1.070011  1325A      1.071313  1326A      1.071901  
    1327A      1.072613  1328A      1.073977  1329A      1.075333  
    1330A      1.075776  1331A      1.078154  1332A      1.079719  
    1333A      1.081977  1334A      1.083547  1335A      1.085473  
    1336A      1.086878  1337A      1.088740  1338A      1.089882  
    1339A      1.092271  1340A      1.094047  1341A      1.094090  
    1342A      1.099375  1343A      1.100181  1344A      1.101071  
    1345A      1.101897  1346A      1.103095  1347A      1.105746  
    1348A      1.108566  1349A      1.110603  1350A      1.113104  
    1351A      1.116107  1352A      1.117670  1353A      1.118564  
    1354A      1.118958  1355A      1.121731  1356A      1.123097  
    1357A      1.123996  1358A      1.124647  1359A      1.126789  
    1360A      1.128486  1361A      1.129692  1362A      1.131134  
    1363A      1.131425  1364A      1.132661  1365A      1.133513  
    1366A      1.134774  1367A      1.137971  1368A      1.139134  
    1369A      1.142924  1370A      1.144504  1371A      1.144965  
    1372A      1.145865  1373A      1.147834  1374A      1.149548  
    1375A      1.150740  1376A      1.151583  1377A      1.155194  
    1378A      1.155661  1379A      1.157552  1380A      1.159392  
    1381A      1.162349  1382A      1.162833  1383A      1.163637  
    1384A      1.165540  1385A      1.165758  1386A      1.166947  
    1387A      1.168041  1388A      1.169530  1389A      1.170711  
    1390A      1.172617  1391A      1.175344  1392A      1.177251  
    1393A      1.179927  1394A      1.181249  1395A      1.182220  
    1396A      1.184991  1397A      1.186366  1398A      1.187422  
    1399A      1.189577  1400A      1.191284  1401A      1.192867  
    1402A      1.195763  1403A      1.196601  1404A      1.197190  
    1405A      1.200922  1406A      1.202221  1407A      1.204816  
    1408A      1.205846  1409A      1.208919  1410A      1.210930  
    1411A      1.211541  1412A      1.212077  1413A      1.213325  
    1414A      1.215385  1415A      1.217545  1416A      1.218645  
    1417A      1.218998  1418A      1.220773  1419A      1.221183  
    1420A      1.223528  1421A      1.224288  1422A      1.225167  
    1423A      1.225690  1424A      1.226203  1425A      1.228287  
    1426A      1.229689  1427A      1.230085  1428A      1.231110  
    1429A      1.232219  1430A      1.233070  1431A      1.234163  
    1432A      1.235251  1433A      1.235827  1434A      1.237925  
    1435A      1.239482  1436A      1.239829  1437A      1.240420  
    1438A      1.241735  1439A      1.243214  1440A      1.246456  
    1441A      1.249939  1442A      1.252845  1443A      1.254114  
    1444A      1.254787  1445A      1.258087  1446A      1.259429  
    1447A      1.260873  1448A      1.262077  1449A      1.264699  
    1450A      1.265576  1451A      1.266343  1452A      1.268544  
    1453A      1.270766  1454A      1.271469  1455A      1.272439  
    1456A      1.272586  1457A      1.273364  1458A      1.273913  
    1459A      1.283291  1460A      1.284067  1461A      1.285519  
    1462A      1.286677  1463A      1.289196  1464A      1.294640  
    1465A      1.296151  1466A      1.299326  1467A      1.300230  
    1468A      1.300772  1469A      1.301830  1470A      1.303779  
    1471A      1.305174  1472A      1.306142  1473A      1.307831  
    1474A      1.310126  1475A      1.312602  1476A      1.313041  
    1477A      1.316859  1478A      1.317193  1479A      1.322653  
    1480A      1.324735  1481A      1.326411  1482A      1.327337  
    1483A      1.330458  1484A      1.333732  1485A      1.335233  
    1486A      1.337011  1487A      1.340053  1488A      1.342355  
    1489A      1.344808  1490A      1.346833  1491A      1.350930  
    1492A      1.352781  1493A      1.354917  1494A      1.356866  
    1495A      1.357184  1496A      1.360798  1497A      1.365075  
    1498A      1.365706  1499A      1.366819  1500A      1.372650  
    1501A      1.375425  1502A      1.377195  1503A      1.378473  
    1504A      1.381839  1505A      1.384731  1506A      1.386015  
    1507A      1.387382  1508A      1.388085  1509A      1.390695  
    1510A      1.393123  1511A      1.395268  1512A      1.397917  
    1513A      1.399803  1514A      1.401534  1515A      1.404268  
    1516A      1.405404  1517A      1.407031  1518A      1.407982  
    1519A      1.410216  1520A      1.411629  1521A      1.413290  
    1522A      1.414977  1523A      1.417169  1524A      1.417547  
    1525A      1.417588  1526A      1.419955  1527A      1.420841  
    1528A      1.422146  1529A      1.422512  1530A      1.423642  
    1531A      1.424749  1532A      1.426569  1533A      1.427951  
    1534A      1.428939  1535A      1.430713  1536A      1.430759  
    1537A      1.431709  1538A      1.433807  1539A      1.434697  
    1540A      1.435722  1541A      1.436192  1542A      1.438019  
    1543A      1.438568  1544A      1.438833  1545A      1.440756  
    1546A      1.441916  1547A      1.442413  1548A      1.442758  
    1549A      1.444361  1550A      1.445472  1551A      1.446931  
    1552A      1.448474  1553A      1.448611  1554A      1.449250  
    1555A      1.451694  1556A      1.452236  1557A      1.453302  
    1558A      1.453983  1559A      1.455593  1560A      1.457552  
    1561A      1.459481  1562A      1.461223  1563A      1.462755  
    1564A      1.464866  1565A      1.467599  1566A      1.469314  
    1567A      1.470626  1568A      1.471157  1569A      1.471649  
    1570A      1.473862  1571A      1.475570  1572A      1.476816  
    1573A      1.477953  1574A      1.478948  1575A      1.481875  
    1576A      1.482730  1577A      1.483031  1578A      1.485777  
    1579A      1.486771  1580A      1.487034  1581A      1.489221  
    1582A      1.490547  1583A      1.491685  1584A      1.494042  
    1585A      1.495282  1586A      1.498942  1587A      1.499715  
    1588A      1.501832  1589A      1.503956  1590A      1.505227  
    1591A      1.505991  1592A      1.508473  1593A      1.510414  
    1594A      1.512914  1595A      1.513604  1596A      1.515513  
    1597A      1.516734  1598A      1.517723  1599A      1.518984  
    1600A      1.519922  1601A      1.522239  1602A      1.523469  
    1603A      1.525734  1604A      1.527381  1605A      1.531149  
    1606A      1.532890  1607A      1.533577  1608A      1.534365  
    1609A      1.535810  1610A      1.537606  1611A      1.538812  
    1612A      1.542756  1613A      1.543236  1614A      1.545204  
    1615A      1.548764  1616A      1.550596  1617A      1.551999  
    1618A      1.553994  1619A      1.555771  1620A      1.557586  
    1621A      1.558838  1622A      1.559754  1623A      1.560629  
    1624A      1.561808  1625A      1.564142  1626A      1.565482  
    1627A      1.567822  1628A      1.569440  1629A      1.572790  
    1630A      1.573552  1631A      1.573856  1632A      1.578293  
    1633A      1.579506  1634A      1.580141  1635A      1.580783  
    1636A      1.582467  1637A      1.583454  1638A      1.584822  
    1639A      1.585729  1640A      1.590268  1641A      1.591579  
    1642A      1.592162  1643A      1.594205  1644A      1.597142  
    1645A      1.600431  1646A      1.603152  1647A      1.603650  
    1648A      1.606786  1649A      1.607780  1650A      1.610546  
    1651A      1.612843  1652A      1.613859  1653A      1.617276  
    1654A      1.619644  1655A      1.621228  1656A      1.623511  
    1657A      1.625666  1658A      1.627075  1659A      1.627255  
    1660A      1.629381  1661A      1.631106  1662A      1.632508  
    1663A      1.633306  1664A      1.636054  1665A      1.637212  
    1666A      1.639331  1667A      1.640514  1668A      1.641805  
    1669A      1.643106  1670A      1.643993  1671A      1.645314  
    1672A      1.646502  1673A      1.647211  1674A      1.647619  
    1675A      1.648076  1676A      1.650386  1677A      1.650636  
    1678A      1.653814  1679A      1.654494  1680A      1.660854  
    1681A      1.662112  1682A      1.662681  1683A      1.664000  
    1684A      1.665256  1685A      1.666376  1686A      1.666577  
    1687A      1.671297  1688A      1.672080  1689A      1.673656  
    1690A      1.674801  1691A      1.675784  1692A      1.676525  
    1693A      1.677290  1694A      1.678516  1695A      1.680268  
    1696A      1.682350  1697A      1.684341  1698A      1.684917  
    1699A      1.685687  1700A      1.687356  1701A      1.688865  
    1702A      1.689811  1703A      1.691197  1704A      1.692399  
    1705A      1.693466  1706A      1.694983  1707A      1.695964  
    1708A      1.697780  1709A      1.698777  1710A      1.699281  
    1711A      1.701301  1712A      1.702822  1713A      1.703225  
    1714A      1.704183  1715A      1.705870  1716A      1.707175  
    1717A      1.709431  1718A      1.710003  1719A      1.712165  
    1720A      1.712852  1721A      1.714770  1722A      1.717081  
    1723A      1.717801  1724A      1.719334  1725A      1.720528  
    1726A      1.721107  1727A      1.722939  1728A      1.723368  
    1729A      1.725287  1730A      1.725726  1731A      1.725827  
    1732A      1.726979  1733A      1.728116  1734A      1.729682  
    1735A      1.730500  1736A      1.731602  1737A      1.732254  
    1738A      1.733998  1739A      1.736142  1740A      1.736994  
    1741A      1.738171  1742A      1.739870  1743A      1.743240  
    1744A      1.743917  1745A      1.746957  1746A      1.748717  
    1747A      1.750088  1748A      1.752803  1749A      1.753672  
    1750A      1.755088  1751A      1.756605  1752A      1.759333  
    1753A      1.760712  1754A      1.761856  1755A      1.762570  
    1756A      1.764986  1757A      1.765225  1758A      1.767178  
    1759A      1.767779  1760A      1.768508  1761A      1.768979  
    1762A      1.769184  1763A      1.771294  1764A      1.771477  
    1765A      1.772289  1766A      1.773505  1767A      1.775315  
    1768A      1.776949  1769A      1.777038  1770A      1.777532  
    1771A      1.781276  1772A      1.782349  1773A      1.783693  
    1774A      1.786097  1775A      1.788201  1776A      1.789123  
    1777A      1.791245  1778A      1.794443  1779A      1.795016  
    1780A      1.795759  1781A      1.796338  1782A      1.798984  
    1783A      1.801053  1784A      1.802414  1785A      1.804643  
    1786A      1.806078  1787A      1.807327  1788A      1.808738  
    1789A      1.809202  1790A      1.809900  1791A      1.810911  
    1792A      1.811232  1793A      1.812792  1794A      1.813868  
    1795A      1.814495  1796A      1.815880  1797A      1.817046  
    1798A      1.817784  1799A      1.818128  1800A      1.818836  
    1801A      1.819439  1802A      1.824462  1803A      1.825455  
    1804A      1.826350  1805A      1.830570  1806A      1.832441  
    1807A      1.836192  1808A      1.837266  1809A      1.838141  
    1810A      1.840569  1811A      1.841178  1812A      1.841577  
    1813A      1.843769  1814A      1.845381  1815A      1.846511  
    1816A      1.847531  1817A      1.849013  1818A      1.849796  
    1819A      1.851190  1820A      1.852635  1821A      1.854055  
    1822A      1.854865  1823A      1.856600  1824A      1.858712  
    1825A      1.861367  1826A      1.861749  1827A      1.863208  
    1828A      1.864550  1829A      1.865510  1830A      1.866947  
    1831A      1.867492  1832A      1.868559  1833A      1.869481  
    1834A      1.871248  1835A      1.874245  1836A      1.875548  
    1837A      1.878284  1838A      1.879188  1839A      1.881092  
    1840A      1.882805  1841A      1.883651  1842A      1.885012  
    1843A      1.885682  1844A      1.886465  1845A      1.889156  
    1846A      1.889846  1847A      1.891600  1848A      1.892856  
    1849A      1.893545  1850A      1.894699  1851A      1.898220  
    1852A      1.898345  1853A      1.901674  1854A      1.902893  
    1855A      1.904120  1856A      1.905248  1857A      1.906024  
    1858A      1.909257  1859A      1.911114  1860A      1.915599  
    1861A      1.918153  1862A      1.919835  1863A      1.920809  
    1864A      1.924414  1865A      1.928510  1866A      1.931120  
    1867A      1.932826  1868A      1.936426  1869A      1.938468  
[...]
	    C     3.3046143963   0.6807212956   0.9918678520
	    C     2.6059149568   0.8083504344   2.2410105252
	    C     2.2281865509  -0.3861347056   2.9371085513
	    C     0.9283929175  -0.4514574816   3.5317057607
	    C     0.0585992464   0.6808721798   3.4049492381
	    C    -1.3259655691   0.4508367201   3.1159295011
	    C    -1.7833013117  -0.8991545630   2.9695687769
	    C    -2.7162760517  -1.2015418372   1.9322395290
	    C    -3.1564789515  -0.1449280843   1.0632612475
	    C    -3.3410898046  -0.4119003318  -0.3245646622
	    C    -3.0511217901  -1.7379585799  -0.8160854249
	    C    -2.4628518138  -1.9059287456  -2.0860021462
	    C    -2.2459509750  -0.7455442270  -3.0408401029
	    C    -0.7401079045  -0.6020858184  -3.3345516329
	    C     0.1121611122  -1.7148910909  -3.1583149578
	    C     1.4976939440  -1.4906372730  -2.8657988487
	    C     2.2852010191  -2.5648841914  -2.3293739362
	    C     3.2552817428  -2.2635418038  -1.3226678142
	    C     3.7261672131  -3.3218999564  -0.4829764873
	    C     3.9073756180  -3.0560373495   0.9193855358
	    C     3.6105061420  -1.7437822131   1.4125584245
	    C     2.9156983149  -1.6178825003   2.6569265884
	    C     2.5426906684  -2.8108368378   3.3579040492
	    C     1.2373275790  -2.8751232171   3.9577974107
	    C     0.3692547828  -1.7426900880   3.8254773600
	    C    -1.0148278042  -1.9704326740   3.5421845000
	    C    -1.4819975291  -3.3176593053   3.4140690434
	    C    -2.4340504329  -3.6210506628   2.3806090822
	    C    -2.8650733255  -2.5651305923   1.5129073682
	    C    -3.0368277988  -2.8386958816   0.1211653239
	    C    -2.7764897479  -4.1605946215  -0.3538887162
	    C    -2.0946912794  -4.3011416755  -1.6084484553
	    C    -1.7535924612  -3.1192682829  -2.3418469691
	    C    -0.4365073628  -3.0377213995  -2.9196559692
	    C     0.4414936830  -4.1493415347  -2.7785439113
	    C     1.8369652055  -3.9157174664  -2.4847996627
	    C     2.6144037204  -4.9773154229  -1.9326721495
	    C     3.5750385374  -4.6762261392  -0.9123846078
	    C     4.0296008879  -5.7403476165  -0.0612548128
	    C     4.1999882119  -5.4794759648   1.3280719109
	    C     3.9168620875  -4.1611224915   1.8244626541
	    C     3.2205476754  -4.0368092506   3.0696561554
	    C     2.8365231896  -5.2386003444   3.7567663081
	    C     1.5453649996  -5.3019178058   4.3536363285
	    C     0.6786945515  -4.1607441224   4.2426703999
	    C    -0.7084304313  -4.3860511613   3.9689289664
	    C    -1.1677904412  -5.7398452732   3.8305402310
	    C    -2.1162149894  -6.0395067443   2.8116201962
	    C    -2.5763777147  -4.9796710255   1.9586087143
	    C    -2.7510033716  -5.2573609224   0.5677779867
	    C    -2.4465649971  -6.5780451238   0.0889682011
	    C    -1.7501690761  -6.7085088139  -1.1449994178
	    C    -1.3913823455  -5.5183751320  -1.8666023288
	    C    -0.0982472900  -5.4442367735  -2.4676408513
	    C     0.7791785546  -6.5705675803  -2.3211611308
	    C     2.1594800802  -6.3376460930  -2.0586231077
	    C     2.9452883356  -7.4095031871  -1.5207187837
	    C     3.9089771676  -7.1042011908  -0.4926664816
	    C     4.4040749906  -8.1568201917   0.3346903918
	    C     4.5668513071  -7.8931187473   1.7481927007
	    C     4.2290650242  -6.5929072939   2.2333534754
	    C     3.5244009643  -6.4694251118   3.4843719466
	    C     3.1766972753  -7.6518127449   4.2059292322
	    C     1.8644581864  -7.7170544035   4.8125987324
	    C     0.9954104472  -6.5935017562   4.6563958651
	    C    -0.4019375070  -6.8185719179   4.3885870834
	    C    -0.8872513914  -8.1593555894   4.2906083386
	    C    -1.8612524878  -8.4580911109   3.2666957019
	    C    -2.2701222608  -7.4031816299   2.3985733568
	    C    -2.4374260376  -7.6891059931   0.9976297027
	    C    -2.1975252052  -9.0162725452   0.5119064209
	    C    -1.4692704841  -9.1413880941  -0.7352152279
	    C    -1.0668836670  -7.9396108571  -1.4077966426
	    C     0.2363985493  -7.8657322342  -2.0176166714
	    C     1.1065416605  -8.9948075123  -1.9402330605
	    C     2.5087945016  -8.7609993573  -1.6836725262
	    C     3.3758488842  -9.7864350783  -1.1696404411
	    C     4.2986780566  -9.4928429758  -0.1886397305
	    C     4.6256819089  -8.9477152894   2.7235332062
	    C     3.9488746145  -8.8303509921   3.9193648822
	    C     1.2473658659  -8.9664640243   5.1659397692
	    C    -0.0906171256  -9.1820630307   4.9104540300
	    C    -2.1649057129  -9.7874430467   2.8215644075
	    C    -2.3560898063 -10.0887315235   1.4836455683
	    C    -0.7737959507 -10.3379593435  -1.1380053457
	    C     0.4772991384 -10.2655809332  -1.7137206885
	    H    -1.7100311803 -12.1172916171   0.9683263386
	    H    -3.2278387689 -12.0179713254   1.8796413315
	    H    -3.2055251355 -11.5907329118   0.1507929607
	    H     0.4752875412  10.3084209524  -5.1607551039
	    H     2.1027716774  10.8213642121  -3.4140135180
	    H     2.3171165424  11.2399961511  -1.2413046801
	    H     1.1235504290  11.4607764158   0.8756359719
	    H    -0.8813262986  11.3648980345   1.8393967752
	    H    -3.2515053667  10.9780663179   1.4021815233
	    H    -4.7314842595  10.5126913051  -0.1861362052
	    H    -4.9954304018  10.0726587333  -2.5725576266
	    H    -3.8957797239   9.8846176272  -4.5025700653
	    H    -1.6896930612   9.9771949705  -5.5428924573
	    H     3.2085653434 -10.8317565443  -1.4470061105
	    H     4.8453968318 -10.3112806665   0.2895712177
	    H     5.0818224277  -9.9078343393   2.4636596454
	    H     3.8837723271  -9.7002077514   4.5800880427
	    H     1.8661452163  -9.8056456345   5.4979654037
	    H    -0.5023377342 -10.1874909889   5.0420730213
	    H    -2.1507251685 -10.6148016627   3.5408154548
	    H    -1.1685322379 -11.3198595671  -0.8762297047
	    H     1.0403220977 -11.1906972131  -1.8719009908
	    H    -2.7779027831  -0.9807922770  -3.9937883748
	Saving final (previous) structure.
			--------------------------
			 OPTKING Finished Execution 
			--------------------------

    Final optimized geometry and variables:
    Molecular point group: c1
    Full point group: C1

    Geometry (in Angstrom), charge = 0, multiplicity = 2:

    C           -2.635172931239   -11.523925381407     1.091472333223
    C            0.878148350426     9.492231906097    -4.553253889780
    C            1.796199721424     9.782063370819    -3.566717157182
    C            2.201169649599     8.768745132883    -2.629382829569
    C            2.358050449141     9.041779058476    -1.216829070402
    C            2.108054176107    10.340684212096    -0.654001966313
    C            1.433829846025    10.465597610225     0.542781925879
    C            0.972273445192     9.298400064242     1.243689324281
    C           -0.335203097319     9.235219297885     1.860813967699
    C           -1.257180545036    10.337328720582     1.820980253946
    C           -2.596095985689    10.118724658341     1.573594724976
    C           -3.086722461590     8.785980897987     1.349181677688
    C           -4.050912342117     8.482728607322     0.314523921898
    C           -4.582837513518     9.494272742109    -0.557793253712
    C           -4.732037287915     9.245766065973    -1.905912255212
    C           -4.361756983598     7.970367413949    -2.456774271573
    C           -3.654020054942     7.846529700491    -3.711976240385
    C           -3.266026736198     8.989728627578    -4.492908100430
    C           -2.019690901974     9.041958582526    -5.080437515613
    C           -1.091295149382     7.955032071572    -4.918891027734
    C            0.313698927863     8.173729724116    -4.658334693123
    C            1.062280320930     7.107136666552    -4.069536911203
    C            2.021080576612     7.412409065802    -3.036376780706
    C            2.455840235992     6.346571490429    -2.178423478450
    C            2.623033991397     6.615885289523    -0.790256560123
    C            2.334184911722     7.937727610911    -0.311015752048
    C            1.631898000884     8.068481081832     0.940457469170
    C            1.262428517455     6.869623003186     1.639249536642
    C           -0.026692915250     6.806292004740     2.240285290748
    C           -0.891621768972     7.946018890305     2.124503963700
    C           -2.289486804149     7.716751734115     1.860620274606
    C           -2.739319452604     6.360118428469     1.720498196663
    C           -3.687163947394     6.061337517873     0.700854032299
    C           -4.150556547105     7.130678107011    -0.137629634412
    C           -4.313221230172     6.870604640932    -1.545530544736
    C           -4.011831901998     5.554326401825    -2.032424408899
    C           -3.318611500023     5.432801865548    -3.270509577106
    C           -2.950465631712     6.629366629757    -3.969372876944
    C           -1.647508304056     6.683382723126    -4.582014564187
    C           -0.788689762080     5.538633561100    -4.454871086699
    C            0.592444534536     5.757165698622    -4.184849450955
    C            1.362799428849     4.675645724717    -3.627328354417
    C            2.319485209675     4.981638997903    -2.604824759513
    C            2.782350190832     3.931428242312    -1.753664633910
    C            2.961584391314     4.203353194965    -0.352254252924
    C            2.656391909558     5.512826424941     0.129966876323
    C            1.961256956678     5.642788041540     1.375210967542
    C            1.598057345289     4.456291458705     2.086348579841
    C            0.293540364578     4.391236655347     2.688031823748
    C           -0.578187260873     5.516891562072     2.553325211300
    C           -1.964995538505     5.287691313158     2.281214120266
    C           -2.424734632616     3.939607338560     2.147216458225
    C           -3.375926434259     3.636480966983     1.112877317060
    C           -3.830580231222     4.697523012521     0.268291573536
    C           -4.003399551038     4.439249295748    -1.127259849776
    C           -3.716319444530     3.127803149887    -1.627520459562
    C           -3.037408973423     3.004653909810    -2.885539689433
    C           -2.647480996774     4.197977210311    -3.568488080797
    C           -1.353755881261     4.248891995652    -4.172157433637
    C           -0.497720782550     3.101204008531    -4.053362099854
    C            0.898038240706     3.332749341212    -3.758587563887
    C            1.658765411104     2.267867037102    -3.177907777048
    C            2.627016884004     2.571422656980    -2.170078389047
    C            3.094472739678     1.513226978028    -1.316588536566
    C            3.277739891570     1.782773576698     0.077289744342
    C            2.979534603429     3.101431391835     0.563774718978
    C            2.285138239844     3.230073423405     1.808089791633
    C            1.913706177608     2.033169218038     2.513703133268
    C            0.614029737201     1.968533880624     3.108633288373
    C           -0.260180739312     3.102164776207     2.978845244809
    C           -1.644072726170     2.872341209316     2.696766601010
    C           -2.097268126389     1.516550994529     2.547987003971
    C           -3.030034953669     1.215114913192     1.510196677179
    C           -3.492709503387     2.279062193635     0.666472650896
    C           -3.663852152154     2.019684596132    -0.727861586462
    C           -3.365793765269     0.701819441168    -1.242381637616
    C           -2.783241101890     0.575442428271    -2.519786454167
    C           -2.385101302315     1.768425135956    -3.196949341799
    C           -1.066404678499     1.826278866284    -3.773463977103
    C           -0.197872773452     0.679263140347    -3.579020152258
    C            1.185986975163     0.916362346411    -3.288799873749
    C            1.966907647638    -0.147737947088    -2.745082402041
    C            2.951825506406     0.156219038055    -1.740981013062
    C            3.408387457232    -0.899984808319    -0.893775975314
    C            3.592400091447    -0.633526627552     0.500597742391
    C            3.304614409273     0.680721298243     0.991867855946
    C            2.605914967090     0.808350437551     2.241010534031
    C            2.228186559658    -0.386134707119     2.937108562885
    C            0.928392921106    -0.451457483367     3.531705774558
    C            0.058599246658     0.680872182439     3.404949251488
    C           -1.325965574277     0.450836721903     3.115929513299
    C           -1.783301318694    -0.899154566518     2.969568788528
    C           -2.716276062350    -1.201541841946     1.932239536631
    C           -3.156478963933    -0.144928084879     1.063261251635
    C           -3.341089817730    -0.411900333374    -0.324564663467
    C           -3.051121802122    -1.737958586763    -0.816085428141
    C           -2.462851823487    -1.905928753077    -2.086002154443
    C           -2.245950983793    -0.745544229933    -3.040840114840
    C           -0.740107907368    -0.602085820771    -3.334551646051
    C            0.112161112637    -1.714891097644    -3.158314970200
    C            1.497693949878    -1.490637278835    -2.865798859928
    C            2.285201028035    -2.564884201458    -2.329373945402
    C            3.255281755643    -2.263541812741    -1.322667819352
    C            3.726167227707    -3.321899969492    -0.482976489173
    C            3.907375633312    -3.056037361506     0.919385539439
    C            3.610506156180    -1.743782219929     1.412558430095
    C            2.915698326407    -1.617882506612     2.656926598819
    C            2.542690678369    -2.810836848838     3.357904062378
    C            1.237327583883    -2.875123228414     3.957797426216
    C            0.369254784225    -1.742690094837     3.825477375068
    C           -1.014827808139    -1.970432681795     3.542184513895
    C           -1.481997534901    -3.317659318348     3.414069056824
    C           -2.434050442426    -3.621050677005     2.380609091564
    C           -2.865073336788    -2.565130602333     1.512907374108
    C           -3.036827810786    -2.838695892804     0.121165324374
    C           -2.776489758794    -4.160594637862    -0.353888717569
    C           -2.094691287617    -4.301141692427    -1.608448461602
    C           -1.753592468085    -3.119268295174    -2.341846978287
    C           -0.436507364549    -3.037721411465    -2.919655980646
    C            0.441493684707    -4.149341551017    -2.778543922245
    C            1.836965212729    -3.915717481747    -2.484799672455
    C            2.614403730687    -4.977315442440    -1.932672157090
    C            3.575038551456    -4.676226157532    -0.912384611415
    C            4.029600903760    -5.740347639025    -0.061254812998
    C            4.199988228359    -5.479475986306     1.328071916104
    C            3.916862102890    -4.161122507895     1.824462661225
    C            3.220547688047    -4.036809266467     3.069656167433
    C            2.836523200791    -5.238600364985     3.756766322829
    C            1.545365005705    -5.301917826627     4.353636345648
    C            0.678694554217    -4.160744138747     4.242670416575
    C           -0.708430434123    -4.386051178532     3.968928981954
    C           -1.167790445833    -5.739845295756     3.830540246089
    C           -2.116214997684    -6.039506768005     2.811620207251
    C           -2.576377724812    -4.979671045047     1.958608721998
    C           -2.751003382453    -5.257360943069     0.567777988942
    C           -2.446565006732    -6.578045149662     0.088968201437
    C           -1.750169082978    -6.708508840261    -1.144999422335
    C           -1.391382350999    -5.518375153714    -1.866602336111
    C           -0.098247290349    -5.444236794879    -2.467640861008
    C            0.779178557655    -6.570567606119    -2.321161139972
    C            2.159480088656    -6.337646117897    -2.058623115819
    C            2.945288347169    -7.409503216187    -1.520718789693
    C            3.908977182916    -7.104201218772    -0.492666483562
    C            4.404075007879    -8.156820223731     0.334690393141
    C            4.566851325084    -7.893118778320     1.748192707595
    C            4.229065040856    -6.592907319848     2.233353484135
    C            3.524400978191    -6.469425137181     3.484371960248
    C            3.176697287799    -7.651812775004     4.205929248697
    C            1.864458193703    -7.717054433831     4.812598751302
    C            0.995410451072    -6.593501782096     4.656395883382
    C           -0.401937508598    -6.818571944749     4.388587100666
    C           -0.887251394907    -8.159355621505     4.290608355477
    C           -1.861252495097    -8.458091144166     3.266695714760
    C           -2.270122269734    -7.403181659002     2.398573366274
    C           -2.437426047162    -7.689106023331     0.997629706629
    C           -2.197525213867    -9.016272580665     0.511906422865
    C           -1.469270489833    -9.141388129998    -0.735215230762
    C           -1.066883671217    -7.939610888297    -1.407796648126
    C            0.236398550265    -7.865732265101    -2.017616679283
    C            1.106541664837    -8.994807547634    -1.940233068079
    C            2.508794511426    -8.760999391783    -1.683672532806
    C            3.375848897440    -9.786435116723    -1.169640445659
    C            4.298678073514    -9.492843013099    -0.188639731198
    C            4.625681927053    -8.947715324587     2.723533216921
    C            3.948874630071    -8.830351026800     3.919364897649
    C            1.247365870829    -8.966464059500     5.165939789479
    C           -0.090617125920    -9.182063066827     4.910454049287
    C           -2.164905721456    -9.787443085176     2.821564418550
    C           -2.356089815522   -10.088731563126     1.483645574091
    C           -0.773795953749   -10.337959384121    -1.138005350209
    C            0.477299140318   -10.265580973575    -1.713720695188
    H           -1.710031187009   -12.117291664679     0.968326342407
    H           -3.227838781621   -12.017971372654     1.879641338924
    H           -3.205525148097   -11.590732957385     0.150792961246
    H            0.475287543071    10.308420992871    -5.160755124217
    H            2.102771685628    10.821364254659    -3.414013531403
    H            2.317116551513    11.239996195266    -1.241304684937
    H            1.123550433412    11.460776460885     0.875635975390
    H           -0.881326302084    11.364898079134     1.839396782427
    H           -3.251505379452    10.978066361039     1.402181528785
    H           -4.731484278050    10.512691346442    -0.186136205898
    H           -4.995430421451    10.072658772908    -2.572557636704
    H           -3.895779739206     9.884617666035    -4.502570082981
    H           -1.689693067855     9.977195009762    -5.542892479085
    H            3.208565356032   -10.831756586864    -1.447006116212
    H            4.845396850840   -10.311280707035     0.289571218847
    H            5.081822447709    -9.907834378245     2.463659655100
    H            3.883772342407    -9.700207789545     4.580088060704
    H            1.866145223683    -9.805645673014     5.497965425333
    H           -0.502337736140   -10.187491028963     5.042073041124
    H           -2.150725176975   -10.614801704374     3.540815468743
    H           -1.168532242538   -11.319859611572    -0.876229708097
    H            1.040322101806   -11.190697257063    -1.871900998189
    H           -2.777902794023    -0.980792280865    -3.993788390542

	Removing binary optimization data file.
	Cleaning optimization helper files.

    Psi4 stopped on: Tuesday, 08 June 2021 08:17AM
    Psi4 wall time for execution: 1 day, 18:08:18.59

*** Psi4 exiting successfully. Buy a developer a beer!
