
    -----------------------------------------------------------------------
          Psi4: An Open-Source Ab Initio Electronic Structure Package
                               Psi4 1.3a2.dev49 

                         Git: Rev {master} f687f49 


    R. M. Parrish, L. A. Burns, D. G. A. Smith, A. C. Simmonett,
    A. E. DePrince III, E. G. Hohenstein, U. Bozkaya, A. Yu. Sokolov,
    R. Di Remigio, R. M. Richard, J. F. Gonthier, A. M. James,
    H. R. McAlexander, A. Kumar, M. Saitow, X. Wang, B. P. Pritchard,
    P. Verma, H. F. Schaefer III, K. Patkowski, R. A. King, E. F. Valeev,
    F. A. Evangelista, J. M. Turney, T. D. Crawford, and C. D. Sherrill,
    J. Chem. Theory Comput. 13(7) pp 3185--3197 (2017).
    (doi: 10.1021/acs.jctc.7b00174)


                         Additional Contributions by
    P. Kraus, H. Kruse, M. H. Lechner, M. C. Schieber, and R. A. Shaw

    -----------------------------------------------------------------------


    Psi4 started on: Wednesday, 22 July 2020 11:21AM

    Process ID: 31094
    Host:       atom
    PSIDATADIR: /home/localadmin/miniconda/envs/p4env/share/psi4
    Memory:     500.0 MiB
    Threads:    1
    
  ==> Input File <==

--------------------------------------------------------------------------
import psi4
psi4.set_memory(3e9)
psi4.set_options({'geom_maxiter':100})
cnt=psi4.geometry("""
0 1
C          5.95114        4.40209        0.00000
C          5.65503        5.79189        0.00000
C          5.29997        6.40620        1.23118
C          4.24350        7.35653        1.23118
C          3.59517        7.64481        0.00000
C          2.18188        7.79266        0.00000
C          1.48792        7.64481        1.23118
C          0.25764        6.93371        1.23118
C         -0.21687        6.40620        0.00000
C         -0.79422        5.10777        0.00000
C         -0.86805        4.40209        1.23118
C         -0.57194        3.01228        1.23118
C         -0.21687        2.39798        0.00000
C          0.83959        1.44765        0.00000
C          1.48792        1.15937        1.23118
C          2.90121        1.01152        1.23118
C          3.59517        1.15937        0.00000
C          4.82545        1.87046        0.00000
C          5.29997        2.39798        1.23118
C          5.87732        3.69641        1.23118
C          5.95114        4.40209        2.46236
C          5.65503        5.79189        2.46236
C          5.29997        6.40620        3.69354
C          4.24350        7.35653        3.69354
C          3.59517        7.64481        2.46236
C          2.18188        7.79266        2.46236
C          1.48792        7.64481        3.69354
C          0.25764        6.93371        3.69354
C         -0.21687        6.40620        2.46236
C         -0.79422        5.10777        2.46236
C         -0.86805        4.40209        3.69354
C         -0.57194        3.01228        3.69354
C         -0.21687        2.39798        2.46236
C          0.83959        1.44765        2.46236
C          1.48792        1.15937        3.69354
C          2.90121        1.01152        3.69354
C          3.59517        1.15937        2.46236
C          4.82545        1.87046        2.46236
C          5.29997        2.39798        3.69354
C          5.87732        3.69641        3.69354
C          5.95114        4.40209        4.92472
C          5.65503        5.79189        4.92472
C          3.59517        7.64481        4.92472
C          2.18188        7.79266        4.92472
C         -0.21687        6.40620        4.92472
C         -0.79422        5.10777        4.92472
C         -0.21687        2.39798        4.92472
C          0.83959        1.44765        4.92472
C          3.59517        1.15937        4.92472
C          4.82545        1.87046        4.92472
H          6.21331        3.91727       -0.87250
H          5.69681        6.34147       -0.87250
H          4.13727        7.74432       -0.87250
H          1.67212        8.00222       -0.87250
H         -0.14400        6.95252       -0.87250
H         -1.15105        4.68772       -0.87250
H         -0.71393        2.63611       -0.87250
H          1.12883        0.97848       -0.87250
H          3.21510        0.76022       -0.87250
H          5.36103        2.00056       -0.87250
H          6.21331        3.91727        5.79721
H          5.69681        6.34147        5.79721
H          4.13727        7.74432        5.79721
H          1.67212        8.00222        5.79721
H         -0.14400        6.95252        5.79721
H         -1.15105        4.68772        5.79721
H         -0.71393        2.63611        5.79721
H          1.12883        0.97848        5.79721
H          3.21510        0.76022        5.79721
C          5.36103        2.00056        5.79721
H          6.25082        2.55750        5.58984
H          5.62421        1.04485        6.20003
H          4.76338        2.53421        6.50639
""")

psi4.energy('pbe/6-31G(d)',molecule=cnt)

--------------------------------------------------------------------------

  Memory set to   2.794 GiB by Python driver.

*** tstart() called on atom
*** at Wed Jul 22 11:21:45 2020

   => Loading Basis Set <=

    Name: 6-31G(D)
    Role: ORBITAL
    Keyword: BASIS
    atoms 1-50, 70     entry C          line   111 file /home/localadmin/miniconda/envs/p4env/share/psi4/basis/6-31g_d_.gbs 
    atoms 51-69, 71-73 entry H          line    44 file /home/localadmin/miniconda/envs/p4env/share/psi4/basis/6-31g_d_.gbs 


         ---------------------------------------------------------
                                   SCF
            by Justin Turney, Rob Parrish, Andy Simmonett
                             and Daniel Smith
                              RKS Reference
                        1 Threads,   2861 MiB Core
         ---------------------------------------------------------

  ==> Geometry <==

    Molecular point group: c1
    Full point group: C1

    Geometry (in Angstrom), charge = 0, multiplicity = 1:

       Center              X                  Y                   Z               Mass       
    ------------   -----------------  -----------------  -----------------  -----------------
         C            3.346398246407     0.052862316293    -2.537500005028    12.000000000000
         C            3.050288246407     1.442662316293    -2.537500005028    12.000000000000
         C            2.695228246407     2.056972316293    -1.306320005028    12.000000000000
         C            1.638758246407     3.007302316293    -1.306320005028    12.000000000000
         C            0.990428246407     3.295582316293    -2.537500005028    12.000000000000
         C           -0.422861753593     3.443432316293    -2.537500005028    12.000000000000
         C           -1.116821753593     3.295582316293    -1.306320005028    12.000000000000
         C           -2.347101753593     2.584482316293    -1.306320005028    12.000000000000
         C           -2.821611753593     2.056972316293    -2.537500005028    12.000000000000
         C           -3.398961753593     0.758542316293    -2.537500005028    12.000000000000
         C           -3.472791753593     0.052862316293    -1.306320005028    12.000000000000
         C           -3.176681753593    -1.336947683707    -1.306320005028    12.000000000000
         C           -2.821611753593    -1.951247683707    -2.537500005028    12.000000000000
         C           -1.765151753593    -2.901577683707    -2.537500005028    12.000000000000
         C           -1.116821753593    -3.189857683707    -1.306320005028    12.000000000000
         C            0.296468246407    -3.337707683707    -1.306320005028    12.000000000000
         C            0.990428246407    -3.189857683707    -2.537500005028    12.000000000000
         C            2.220708246407    -2.478767683707    -2.537500005028    12.000000000000
         C            2.695228246407    -1.951247683707    -1.306320005028    12.000000000000
         C            3.272578246407    -0.652817683707    -1.306320005028    12.000000000000
         C            3.346398246407     0.052862316293    -0.075140005028    12.000000000000
         C            3.050288246407     1.442662316293    -0.075140005028    12.000000000000
         C            2.695228246407     2.056972316293     1.156039994972    12.000000000000
         C            1.638758246407     3.007302316293     1.156039994972    12.000000000000
         C            0.990428246407     3.295582316293    -0.075140005028    12.000000000000
         C           -0.422861753593     3.443432316293    -0.075140005028    12.000000000000
         C           -1.116821753593     3.295582316293     1.156039994972    12.000000000000
         C           -2.347101753593     2.584482316293     1.156039994972    12.000000000000
         C           -2.821611753593     2.056972316293    -0.075140005028    12.000000000000
         C           -3.398961753593     0.758542316293    -0.075140005028    12.000000000000
         C           -3.472791753593     0.052862316293     1.156039994972    12.000000000000
         C           -3.176681753593    -1.336947683707     1.156039994972    12.000000000000
         C           -2.821611753593    -1.951247683707    -0.075140005028    12.000000000000
         C           -1.765151753593    -2.901577683707    -0.075140005028    12.000000000000
         C           -1.116821753593    -3.189857683707     1.156039994972    12.000000000000
         C            0.296468246407    -3.337707683707     1.156039994972    12.000000000000
         C            0.990428246407    -3.189857683707    -0.075140005028    12.000000000000
         C            2.220708246407    -2.478767683707    -0.075140005028    12.000000000000
         C            2.695228246407    -1.951247683707     1.156039994972    12.000000000000
         C            3.272578246407    -0.652817683707     1.156039994972    12.000000000000
         C            3.346398246407     0.052862316293     2.387219994972    12.000000000000
         C            3.050288246407     1.442662316293     2.387219994972    12.000000000000
         C            0.990428246407     3.295582316293     2.387219994972    12.000000000000
         C           -0.422861753593     3.443432316293     2.387219994972    12.000000000000
         C           -2.821611753593     2.056972316293     2.387219994972    12.000000000000
         C           -3.398961753593     0.758542316293     2.387219994972    12.000000000000
         C           -2.821611753593    -1.951247683707     2.387219994972    12.000000000000
         C           -1.765151753593    -2.901577683707     2.387219994972    12.000000000000
         C            0.990428246407    -3.189857683707     2.387219994972    12.000000000000
         C            2.220708246407    -2.478767683707     2.387219994972    12.000000000000
         H            3.608568246407    -0.431957683707    -3.410000005028     1.007825032070
         H            3.092068246407     1.992242316293    -3.410000005028     1.007825032070
         H            1.532528246407     3.395092316293    -3.410000005028     1.007825032070
         H           -0.932621753593     3.652992316293    -3.410000005028     1.007825032070
         H           -2.748741753593     2.603292316293    -3.410000005028     1.007825032070
         H           -3.755791753593     0.338492316293    -3.410000005028     1.007825032070
         H           -3.318671753593    -1.713117683707    -3.410000005028     1.007825032070
         H           -1.475911753593    -3.370747683707    -3.410000005028     1.007825032070
         H            0.610358246407    -3.589007683707    -3.410000005028     1.007825032070
         H            2.756288246407    -2.348667683707    -3.410000005028     1.007825032070
         H            3.608568246407    -0.431957683707     3.259709994972     1.007825032070
         H            3.092068246407     1.992242316293     3.259709994972     1.007825032070
         H            1.532528246407     3.395092316293     3.259709994972     1.007825032070
         H           -0.932621753593     3.652992316293     3.259709994972     1.007825032070
         H           -2.748741753593     2.603292316293     3.259709994972     1.007825032070
         H           -3.755791753593     0.338492316293     3.259709994972     1.007825032070
         H           -3.318671753593    -1.713117683707     3.259709994972     1.007825032070
         H           -1.475911753593    -3.370747683707     3.259709994972     1.007825032070
         H            0.610358246407    -3.589007683707     3.259709994972     1.007825032070
         C            2.756288246407    -2.348667683707     3.259709994972    12.000000000000
         H            3.646078246407    -1.791727683707     3.052339994972     1.007825032070
         H            3.019468246407    -3.304377683707     3.662529994972     1.007825032070
         H            2.158638246407    -1.815017683707     3.968889994972     1.007825032070

  Running in c1 symmetry.

  Rotational constants: A =      0.00290  B =      0.00280  C =      0.00226 [cm^-1]
  Rotational constants: A =     86.96977  B =     83.95074  C =     67.71535 [MHz]
  Nuclear repulsion = 6458.913911593833291

  Charge       = 0
  Multiplicity = 1
  Electrons    = 328
  Nalpha       = 164
  Nbeta        = 164

  ==> Algorithm <==

  SCF Algorithm Type is DF.
  DIIS enabled.
  MOM disabled.
  Fractional occupation disabled.
  Guess Type is SAD.
  Energy threshold   = 1.00e-06
  Density threshold  = 1.00e-06
  Integral threshold = 0.00e+00

  ==> Primary Basis <==

  Basis Set: 6-31G(D)
    Blend: 6-31G(D)
    Number of shells: 350
    Number of basis function: 809
    Number of Cartesian functions: 809
    Spherical Harmonics?: false
    Max angular momentum: 2

  ==> DFT Potential <==

   => Composite Functional: PBE <= 

    PBE GGA Exchange-Correlation Functional

    J.P. Perdew et. al., Phys. Rev. Lett., 77(18), 3865-3868, 1996


    Deriv               =              1
    GGA                 =           TRUE
    Meta                =          FALSE

    Exchange Hybrid     =          FALSE
    MP2 Hybrid          =          FALSE

   => Exchange Functionals <=

    1.0000     XC_GGA_X_PBE

   => Correlation Functionals <=

    1.0000     XC_GGA_C_PBE

   => Molecular Quadrature <=

    Radial Scheme          =       TREUTLER
    Pruning Scheme         =           FLAT
    Nuclear Scheme         =       TREUTLER

    BS radius alpha        =              1
    Pruning alpha          =              1
    Radial Points          =             75
    Spherical Points       =            302
    Total Points           =        1618906
    Total Blocks           =          11174
    Max Points             =            256
    Max Functions          =            542

   => Loading Basis Set <=

    Name: (6-31G(D) AUX)
    Role: JKFIT
    Keyword: DF_BASIS_SCF
    atoms 1-50, 70     entry C          line   121 file /home/localadmin/miniconda/envs/p4env/share/psi4/basis/cc-pvdz-jkfit.gbs 
    atoms 51-69, 71-73 entry H          line    51 file /home/localadmin/miniconda/envs/p4env/share/psi4/basis/cc-pvdz-jkfit.gbs 

  ==> Pre-Iterations <==

   -------------------------------------------------------
    Irrep   Nso     Nmo     Nalpha   Nbeta   Ndocc  Nsocc
   -------------------------------------------------------
     A        809     809       0       0       0       0
   -------------------------------------------------------
    Total     809     809     164     164     164       0
   -------------------------------------------------------

  ==> Integral Setup <==

  ==> DiskDFJK: Density-Fitted J/K Matrices <==

    J tasked:                  Yes
    K tasked:                   No
    wK tasked:                  No
    OpenMP threads:              1
    Integrals threads:           1
    Memory [MiB]:             1931
    Algorithm:                Disk
    Integral Cache:           NONE
    Schwarz Cutoff:          1E-12
    Fitting Condition:       1E-12

   => Auxiliary Basis Set <=

  Basis Set: (6-31G(D) AUX)
    Blend: CC-PVDZ-JKFIT
    Number of shells: 1422
    Number of basis function: 4681
    Number of Cartesian functions: 4681
    Spherical Harmonics?: false
    Max angular momentum: 3

  Cached 1.7% of DFT collocation blocks in 217 MiB.

  Minimum eigenvalue in the overlap matrix is 1.6660549591E-04.
  Using Symmetric Orthogonalization.

  SCF Guess: Superposition of Atomic Densities via on-the-fly atomic UHF.

  ==> Iterations <==

                           Total Energy        Delta E     RMS |[F,P]|

   @DF-RKS iter   0: -1969.27153320648813   -1.96927e+03   1.59123e-02 
   @DF-RKS iter   1: -1952.55271254267905    1.67188e+01   1.85548e-03 
   @DF-RKS iter   2: -1943.36164556419430    9.19107e+00   5.07166e-03 DIIS
   @DF-RKS iter   3: -1952.75783597234795   -9.39619e+00   1.55901e-03 DIIS
   @DF-RKS iter   4: -1953.65378524685411   -8.95949e-01   5.63570e-04 DIIS
   @DF-RKS iter   5: -1953.70283312016818   -4.90479e-02   4.38571e-04 DIIS
   @DF-RKS iter   6: -1953.76689124281347   -6.40581e-02   1.56269e-04 DIIS
   @DF-RKS iter   7: -1953.77444684338434   -7.55560e-03   7.28408e-05 DIIS
   @DF-RKS iter   8: -1953.77623465749571   -1.78781e-03   3.12979e-05 DIIS
   @DF-RKS iter   9: -1953.77648355025531   -2.48893e-04   1.86249e-05 DIIS
   @DF-RKS iter  10: -1953.77660043615401   -1.16886e-04   7.44837e-06 DIIS
   @DF-RKS iter  11: -1953.77662023894891   -1.98028e-05   3.07017e-06 DIIS
   @DF-RKS iter  12: -1953.77662373218391   -3.49323e-06   7.32165e-07 DIIS
   @DF-RKS iter  13: -1953.77662391743979   -1.85256e-07   2.41131e-07 DIIS
  Energy converged.


  ==> Post-Iterations <==

    Orbital Energies [Eh]
    ---------------------

    Doubly Occupied:                                                      

       1A     -9.913431     2A     -9.911222     3A     -9.910260  
       4A     -9.909277     5A     -9.909136     6A     -9.908993  
       7A     -9.908882     8A     -9.908703     9A     -9.908639  
      10A     -9.908568    11A     -9.908170    12A     -9.908086  
      13A     -9.907948    14A     -9.907800    15A     -9.907655  
      16A     -9.907536    17A     -9.907253    18A     -9.906956  
      19A     -9.906681    20A     -9.906391    21A     -9.906170  
      22A     -9.906129    23A     -9.905945    24A     -9.905869  
      25A     -9.905564    26A     -9.904652    27A     -9.903717  
      28A     -9.903680    29A     -9.903395    30A     -9.903031  
      31A     -9.901595    32A     -9.901404    33A     -9.901234  
      34A     -9.901212    35A     -9.900947    36A     -9.900851  
      37A     -9.900548    38A     -9.900003    39A     -9.899983  
      40A     -9.899672    41A     -9.899483    42A     -9.899401  
      43A     -9.899274    44A     -9.898736    45A     -9.898406  
      46A     -9.898367    47A     -9.897984    48A     -9.896480  
      49A     -9.886209    50A     -9.880613    51A     -9.862706  
      52A     -0.852550    53A     -0.825922    54A     -0.818220  
      55A     -0.811778    56A     -0.790071    57A     -0.787128  
      58A     -0.767928    59A     -0.760960    60A     -0.752212  
      61A     -0.744822    62A     -0.742328    63A     -0.735033  
      64A     -0.723596    65A     -0.693362    66A     -0.689751  
      67A     -0.687320    68A     -0.685976    69A     -0.682412  
      70A     -0.679005    71A     -0.670458    72A     -0.662692  
      73A     -0.646815    74A     -0.641072    75A     -0.631950  
      76A     -0.626626    77A     -0.602261    78A     -0.592166  
      79A     -0.588787    80A     -0.584489    81A     -0.581436  
      82A     -0.570660    83A     -0.560824    84A     -0.554392  
      85A     -0.547608    86A     -0.546261    87A     -0.532112  
      88A     -0.529416    89A     -0.525665    90A     -0.514247  
      91A     -0.504195    92A     -0.493644    93A     -0.492022  
      94A     -0.474426    95A     -0.471517    96A     -0.465984  
      97A     -0.463987    98A     -0.462538    99A     -0.458097  
     100A     -0.453501   101A     -0.449081   102A     -0.442481  
     103A     -0.437507   104A     -0.431740   105A     -0.427911  
     106A     -0.419696   107A     -0.418342   108A     -0.407610  
     109A     -0.399777   110A     -0.396656   111A     -0.396548  
     112A     -0.393087   113A     -0.389764   114A     -0.388030  
     115A     -0.386675   116A     -0.384604   117A     -0.382167  
     118A     -0.380586   119A     -0.379272   120A     -0.373867  
     121A     -0.364062   122A     -0.361290   123A     -0.359538  
     124A     -0.358033   125A     -0.352134   126A     -0.350339  
     127A     -0.349525   128A     -0.348961   129A     -0.344125  
     130A     -0.343707   131A     -0.341752   132A     -0.340921  
     133A     -0.337970   134A     -0.320564   135A     -0.316829  
     136A     -0.309920   137A     -0.309789   138A     -0.300008  
     139A     -0.293635   140A     -0.289251   141A     -0.287528  
     142A     -0.277166   143A     -0.275988   144A     -0.275324  
     145A     -0.274796   146A     -0.273397   147A     -0.267579  
     148A     -0.263531   149A     -0.262469   150A     -0.259990  
     151A     -0.248295   152A     -0.228326   153A     -0.223003  
     154A     -0.221633   155A     -0.220053   156A     -0.214127  
     157A     -0.210445   158A     -0.210073   159A     -0.206645  
     160A     -0.194303   161A     -0.171028   162A     -0.166473  
     163A     -0.163852   164A     -0.134541  

    Virtual:                                                              

     165A     -0.097999   166A     -0.072467   167A     -0.072164  
     168A     -0.068833   169A     -0.061457   170A     -0.059888  
     171A     -0.034880   172A     -0.031454   173A     -0.029014  
     174A     -0.025476   175A     -0.024896   176A     -0.023450  
     177A     -0.007039   178A      0.007406   179A      0.009583  
     180A      0.038471   181A      0.040767   182A      0.049134  
     183A      0.054347   184A      0.076339   185A      0.078453  
     186A      0.079909   187A      0.081472   188A      0.082761  
     189A      0.084769   190A      0.087646   191A      0.097000  
     192A      0.100715   193A      0.104365   194A      0.106304  
     195A      0.109366   196A      0.110745   197A      0.112896  
     198A      0.114428   199A      0.116510   200A      0.121451  
     201A      0.148979   202A      0.172446   203A      0.175149  
     204A      0.178630   205A      0.186821   206A      0.188548  
     207A      0.192169   208A      0.192732   209A      0.195499  
     210A      0.198173   211A      0.203993   212A      0.208310  
     213A      0.212710   214A      0.213989   215A      0.216125  
     216A      0.221330   217A      0.229908   218A      0.232089  
     219A      0.236750   220A      0.237469   221A      0.244832  
     222A      0.246799   223A      0.247804   224A      0.248629  
     225A      0.254155   226A      0.255187   227A      0.258145  
     228A      0.259687   229A      0.264198   230A      0.280673  
     231A      0.281922   232A      0.290971   233A      0.293426  
     234A      0.299197   235A      0.303063   236A      0.303683  
     237A      0.307831   238A      0.312036   239A      0.314991  
     240A      0.318495   241A      0.325616   242A      0.332388  
     243A      0.342182   244A      0.345987   245A      0.354691  
     246A      0.356475   247A      0.359834   248A      0.369805  
     249A      0.376791   250A      0.393582   251A      0.404064  
     252A      0.414436   253A      0.423108   254A      0.426077  
     255A      0.427207   256A      0.431229   257A      0.444809  
     258A      0.446523   259A      0.450603   260A      0.451619  
     261A      0.453672   262A      0.454584   263A      0.458980  
     264A      0.464335   265A      0.468016   266A      0.472327  
     267A      0.476532   268A      0.478484   269A      0.486570  
     270A      0.488126   271A      0.494978   272A      0.495408  
     273A      0.498191   274A      0.498781   275A      0.500923  
     276A      0.501754   277A      0.504802   278A      0.506452  
     279A      0.507638   280A      0.508447   281A      0.508900  
     282A      0.512170   283A      0.514268   284A      0.517009  
     285A      0.521022   286A      0.522718   287A      0.523166  
     288A      0.525663   289A      0.525848   290A      0.527078  
     291A      0.528738   292A      0.530618   293A      0.531504  
     294A      0.533205   295A      0.534826   296A      0.536353  
     297A      0.539706   298A      0.542217   299A      0.543197  
     300A      0.544760   301A      0.546179   302A      0.548388  
     303A      0.551210   304A      0.552173   305A      0.555772  
     306A      0.558070   307A      0.559449   308A      0.560124  
     309A      0.564484   310A      0.566228   311A      0.569997  
     312A      0.571503   313A      0.572916   314A      0.574342  
     315A      0.575037   316A      0.578466   317A      0.579314  
     318A      0.581138   319A      0.588425   320A      0.590520  
     321A      0.601256   322A      0.602250   323A      0.605194  
     324A      0.612109   325A      0.614752   326A      0.615408  
     327A      0.621544   328A      0.624352   329A      0.625215  
     330A      0.627643   331A      0.630259   332A      0.634689  
     333A      0.637465   334A      0.641622   335A      0.644343  
     336A      0.650440   337A      0.654713   338A      0.657062  
     339A      0.659780   340A      0.661433   341A      0.664982  
     342A      0.666992   343A      0.668494   344A      0.673694  
     345A      0.687247   346A      0.693162   347A      0.698736  
     348A      0.702338   349A      0.705109   350A      0.715897  
     351A      0.729935   352A      0.731419   353A      0.734336  
     354A      0.736101   355A      0.739551   356A      0.742400  
     357A      0.746483   358A      0.754533   359A      0.765469  
     360A      0.767419   361A      0.768349   362A      0.770739  
     363A      0.774156   364A      0.775912   365A      0.778826  
     366A      0.780716   367A      0.788507   368A      0.789347  
     369A      0.794843   370A      0.800148   371A      0.802919  
     372A      0.808222   373A      0.820275   374A      0.822344  
     375A      0.825309   376A      0.826097   377A      0.834231  
     378A      0.838108   379A      0.842396   380A      0.846549  
     381A      0.853899   382A      0.858501   383A      0.863364  
     384A      0.864549   385A      0.868619   386A      0.869574  
     387A      0.872960   388A      0.878096   389A      0.879904  
     390A      0.880077   391A      0.882013   392A      0.883202  
     393A      0.886121   394A      0.887798   395A      0.892520  
     396A      0.893349   397A      0.896672   398A      0.900241  
     399A      0.903269   400A      0.906185   401A      0.909750  
     402A      0.912142   403A      0.919281   404A      0.925822  
     405A      0.930190   406A      0.933349   407A      0.938037  
     408A      0.941491   409A      0.948165   410A      0.955207  
     411A      0.958245   412A      0.967073   413A      0.972132  
     414A      0.973723   415A      0.978373   416A      0.981647  
     417A      0.985761   418A      0.993375   419A      0.995176  
     420A      0.998342   421A      1.006726   422A      1.014333  
     423A      1.019324   424A      1.020246   425A      1.028852  
     426A      1.036514   427A      1.041239   428A      1.043052  
     429A      1.044310   430A      1.045766   431A      1.048511  
     432A      1.054892   433A      1.061612   434A      1.075462  
     435A      1.076385   436A      1.083036   437A      1.089687  
     438A      1.091990   439A      1.092862   440A      1.094509  
     441A      1.105548   442A      1.106825   443A      1.116495  
     444A      1.121730   445A      1.124511   446A      1.137206  
     447A      1.143634   448A      1.150151   449A      1.154231  
     450A      1.155888   451A      1.167290   452A      1.167866  
     453A      1.176305   454A      1.182000   455A      1.184915  
     456A      1.195215   457A      1.201107   458A      1.207723  
     459A      1.213612   460A      1.223169   461A      1.226589  
     462A      1.235726   463A      1.239953   464A      1.252900  
     465A      1.263895   466A      1.270691   467A      1.271825  
     468A      1.279291   469A      1.282957   470A      1.290315  
     471A      1.293147   472A      1.296328   473A      1.297367  
     474A      1.303145   475A      1.312782   476A      1.317639  
     477A      1.331595   478A      1.333362   479A      1.334578  
     480A      1.335842   481A      1.336321   482A      1.337452  
     483A      1.348909   484A      1.354861   485A      1.364912  
     486A      1.374377   487A      1.377208   488A      1.386437  
     489A      1.389154   490A      1.390635   491A      1.393658  
     492A      1.400156   493A      1.402732   494A      1.404466  
     495A      1.411984   496A      1.424769   497A      1.429084  
     498A      1.446788   499A      1.451766   500A      1.452734  
     501A      1.454557   502A      1.463441   503A      1.466293  
     504A      1.469636   505A      1.475652   506A      1.479990  
     507A      1.492958   508A      1.495810   509A      1.497741  
     510A      1.500073   511A      1.505679   512A      1.510113  
     513A      1.514238   514A      1.526811   515A      1.526898  
     516A      1.536222   517A      1.538518   518A      1.539759  
     519A      1.545280   520A      1.563956   521A      1.568815  
     522A      1.570450   523A      1.575025   524A      1.579081  
     525A      1.584691   526A      1.589313   527A      1.591072  
     528A      1.625724   529A      1.631665   530A      1.636810  
     531A      1.638089   532A      1.640998   533A      1.651254  
     534A      1.667310   535A      1.668713   536A      1.671512  
     537A      1.684356   538A      1.689481   539A      1.694197  
     540A      1.699238   541A      1.706679   542A      1.731438  
     543A      1.736527   544A      1.740247   545A      1.743781  
     546A      1.745622   547A      1.746491   548A      1.747197  
     549A      1.758901   550A      1.759587   551A      1.765042  
     552A      1.772118   553A      1.775249   554A      1.780338  
     555A      1.786341   556A      1.790333   557A      1.792269  
     558A      1.803176   559A      1.805653   560A      1.814061  
     561A      1.816085   562A      1.820326   563A      1.822473  
     564A      1.833412   565A      1.839985   566A      1.848907  
     567A      1.855758   568A      1.859350   569A      1.863455  
     570A      1.864455   571A      1.872329   572A      1.874339  
     573A      1.879833   574A      1.882749   575A      1.888026  
     576A      1.902259   577A      1.905790   578A      1.911471  
     579A      1.919437   580A      1.924875   581A      1.931388  
     582A      1.935684   583A      1.941173   584A      1.943483  
     585A      1.947347   586A      1.949034   587A      1.950675  
     588A      1.955268   589A      1.955686   590A      1.964090  
     591A      1.967630   592A      1.972461   593A      1.980931  
     594A      1.991487   595A      1.993333   596A      1.999619  
     597A      2.000480   598A      2.002508   599A      2.005192  
     600A      2.007954   601A      2.017768   602A      2.026777  
     603A      2.033411   604A      2.043178   605A      2.046008  
     606A      2.049675   607A      2.068605   608A      2.075709  
     609A      2.081982   610A      2.084400   611A      2.085362  
     612A      2.092862   613A      2.098714   614A      2.103113  
     615A      2.112133   616A      2.112728   617A      2.117320  
     618A      2.120458   619A      2.123867   620A      2.125975  
     621A      2.127449   622A      2.131213   623A      2.134666  
     624A      2.139755   625A      2.145682   626A      2.149430  
     627A      2.155500   628A      2.159002   629A      2.164009  
     630A      2.168718   631A      2.177871   632A      2.185664  
     633A      2.192732   634A      2.194730   635A      2.202290  
     636A      2.204177   637A      2.208405   638A      2.213893  
     639A      2.217280   640A      2.218299   641A      2.224434  
     642A      2.239375   643A      2.243449   644A      2.249533  
     645A      2.255179   646A      2.268346   647A      2.278223  
     648A      2.284985   649A      2.293868   650A      2.301345  
     651A      2.308924   652A      2.338913   653A      2.344040  
     654A      2.348942   655A      2.359682   656A      2.367382  
     657A      2.373112   658A      2.378844   659A      2.383213  
     660A      2.411498   661A      2.413250   662A      2.427513  
     663A      2.434263   664A      2.438522   665A      2.440198  
     666A      2.442494   667A      2.446329   668A      2.448982  
     669A      2.454375   670A      2.465491   671A      2.473318  
     672A      2.481435   673A      2.489787   674A      2.496249  
     675A      2.498281   676A      2.504111   677A      2.506486  
     678A      2.515841   679A      2.524119   680A      2.536180  
     681A      2.545532   682A      2.555565   683A      2.560574  
     684A      2.563322   685A      2.572513   686A      2.582476  
     687A      2.590614   688A      2.592275   689A      2.594607  
     690A      2.604033   691A      2.610907   692A      2.615498  
     693A      2.625185   694A      2.634698   695A      2.640475  
     696A      2.645153   697A      2.648316   698A      2.651927  
     699A      2.657184   700A      2.660462   701A      2.663628  
     702A      2.665483   703A      2.677437   704A      2.684858  
     705A      2.688146   706A      2.693918   707A      2.696164  
     708A      2.700385   709A      2.709198   710A      2.709799  
     711A      2.714177   712A      2.722656   713A      2.726935  
     714A      2.739879   715A      2.746822   716A      2.748145  
     717A      2.750010   718A      2.759964   719A      2.782847  
     720A      2.789734   721A      2.792066   722A      2.793236  
     723A      2.802052   724A      2.803896   725A      2.805786  
     726A      2.812266   727A      2.819205   728A      2.824477  
     729A      2.833739   730A      2.841853   731A      2.847943  
     732A      2.900265   733A      2.909979   734A      2.926703  
     735A      2.961741   736A      2.969401   737A      2.972894  
     738A      2.976738   739A      2.984857   740A      3.027395  
     741A      3.047871   742A      3.061081   743A      3.068695  
     744A      3.173877   745A      3.188156   746A      3.199521  
     747A      3.210323   748A      3.221492   749A      3.229121  
     750A      3.264242   751A      3.373534   752A      3.392903  
     753A      3.408770   754A      3.411565   755A      3.428852  
     756A      3.484108   757A      3.504251   758A      3.738548  
     759A      4.001559   760A      4.005782   761A      4.006532  
     762A      4.009148   763A      4.015671   764A      4.017259  
     765A      4.018356   766A      4.023147   767A      4.036104  
     768A      4.038932   769A      4.046239   770A      4.057851  
     771A      4.058637   772A      4.060631   773A      4.067977  
     774A      4.078656   775A      4.080808   776A      4.083476  
     777A      4.098613   778A      4.112188   779A      4.126932  
     780A      4.136636   781A      4.166467   782A      4.168271  
     783A      4.214018   784A      4.260653   785A      4.260807  
     786A      4.264700   787A      4.265289   788A      4.277335  
     789A      4.287905   790A      4.313511   791A      4.324123  
     792A      4.350056   793A      4.360225   794A      4.367981  
     795A      4.372881   796A      4.392731   797A      4.415138  
     798A      4.436648   799A      4.473581   800A      4.489763  
     801A      4.512441   802A      4.560410   803A      4.600602  
     804A      4.669253   805A      4.670217   806A      4.715848  
     807A      4.869386   808A      4.885915   809A      4.998119  

    Final Occupation by Irrep:
              A 
    DOCC [   164 ]

  @DF-RKS Final Energy: -1953.77662391743979

   => Energetics <=

    Nuclear Repulsion Energy =           6458.9139115938332907
    One-Electron Energy =              -15510.6427527799569361
    Two-Electron Energy =                7381.3303309069360694
    DFT Exchange-Correlation Energy =    -283.3781136382532395
    Empirical Dispersion Energy =           0.0000000000000000
    VV10 Nonlocal Energy =                  0.0000000000000000
    Total Energy =                      -1953.7766239174397924

Computation Completed


Properties will be evaluated at   0.000000,   0.000000,   0.000000 [a0]

Properties computed using the SCF density matrix

  Nuclear Dipole Moment: [e a0]
     X:     4.5036      Y:    -3.2860      Z:     5.5509

  Electronic Dipole Moment: [e a0]
     X:    -4.1223      Y:     3.1222      Z:    -5.2001

  Dipole Moment: [e a0]
     X:     0.3814      Y:    -0.1638      Z:     0.3508     Total:     0.5435

  Dipole Moment: [D]
     X:     0.9694      Y:    -0.4163      Z:     0.8917     Total:     1.3813


*** tstop() called on atom at Wed Jul 22 12:15:32 2020
Module time:
	user time   =    1906.20 seconds =      31.77 minutes
	system time =      76.33 seconds =       1.27 minutes
	total time  =       3227 seconds =      53.78 minutes
Total time:
	user time   =    1906.20 seconds =      31.77 minutes
	system time =      76.33 seconds =       1.27 minutes
	total time  =       3227 seconds =      53.78 minutes

    Psi4 stopped on: Wednesday, 22 July 2020 12:15PM
    Psi4 wall time for execution: 0:53:48.67

*** Psi4 exiting successfully. Buy a developer a beer!
